 Gaussian 16, Revision C.02,
 Gaussian 16:  ES64L-G16RevC.02  7-Dec-2021

 ---------------------------------------------
 # opt b3lyp/6-31g* scrf(smd, solvent=ethanol)
 ---------------------------------------------

 ---
 A-2
 ---
 Symbolic Z-matrix:
 Charge =  1 Multiplicity = 1

 SCF Done:  E(RB3LYP) =  -1718.65156294     A.U. after   13 cycles
 SCF Done:  E(RB3LYP) =  -1718.65219681     A.U. after   10 cycles
 SCF Done:  E(RB3LYP) =  -1718.65219403     A.U. after    9 cycles
 SCF Done:  E(RB3LYP) =  -1718.65221538     A.U. after    9 cycles
 SCF Done:  E(RB3LYP) =  -1718.65221514     A.U. after    8 cycles
 SCF Done:  E(RB3LYP) =  -1718.65221864     A.U. after    8 cycles
 SCF Done:  E(RB3LYP) =  -1718.65221895     A.U. after    7 cycles
 SCF Done:  E(RB3LYP) =  -1718.65221895     A.U. after    6 cycles
 Optimization completed.
    -- Stationary point found.

                         Standard orientation:
 ---------------------------------------------------------------------
 Center     Atomic      Atomic             Coordinates (Angstroms)
 Number     Number       Type             X           Y           Z
 ---------------------------------------------------------------------
      1          6           0        1.187565    1.122459    0.242252
      2          6           0       -0.065953    0.513066    0.165255
      3          6           0       -1.258829    1.233653    0.193730
      4          6           0       -2.586137    0.781217    0.129695
      5          6           0        2.399083    0.429804    0.159943
      6         16           0       -3.842832    1.980598   -0.188313
      7          6           0       -5.094903    0.748971   -0.131595
      8          6           0       -4.524343   -0.509094    0.117994
      9          7           0       -3.130036   -0.456261    0.283225
     10         16           0        2.516544   -1.306372   -0.145761
     11          6           0        4.276677   -1.227861   -0.108047
     12          6           0        4.704214    0.088655    0.125793
     13          7           0        3.637001    0.981736    0.292917
     14          6           0        5.181692   -2.271223   -0.284630
     15          6           0        6.544017   -1.974037   -0.229354
     16          6           0        6.978212   -0.660660   -0.005988
     17          6           0        6.071064    0.383269    0.172030
     18          6           0       -6.468942    0.907843   -0.300392
     19          6           0       -7.274824   -0.227476   -0.220931
     20          6           0       -6.710707   -1.487477    0.021647
     21          6           0       -5.336456   -1.645995    0.192626
     22          6           0        3.853695    2.417924    0.562399
     23          6           0        3.944416    3.248621   -0.714748
     24          6           0       -2.379082   -1.658056    0.700945
     25          6           0       -1.942294   -2.531972   -0.472232
     26          1           0        1.226707    2.199539    0.365681
     27          1           0       -0.099697   -0.564656    0.045639
     28          1           0       -1.162757    2.317423    0.214223
     29          1           0        4.836823   -3.285245   -0.462462
     30          1           0        7.270405   -2.769614   -0.365226
     31          1           0        8.041917   -0.444325    0.027283
     32          1           0        6.424261    1.395410    0.333453
     33          1           0       -6.898408    1.886900   -0.488947
     34          1           0       -8.348377   -0.130811   -0.352082
     35          1           0       -7.351893   -2.362314    0.074667
     36          1           0       -4.915249   -2.628974    0.369222
     37          1           0        3.041446    2.759959    1.205857
     38          1           0        4.770805    2.494794    1.149381
     39          1           0        4.115044    4.297838   -0.449652
     40          1           0        4.774214    2.914561   -1.346271
     41          1           0        3.018095    3.186558   -1.295296
     42          1           0       -1.532673   -1.322077    1.301566
     43          1           0       -3.035510   -2.215546    1.372995
     44          1           0       -1.302437   -1.985807   -1.172870
     45          1           0       -1.380867   -3.390802   -0.088232
     46          1           0       -2.808983   -2.908551   -1.025094
 ---------------------------------------------------------------------

 The electronic state is 1-A.
 Alpha  occ. eigenvalues --  -88.93270 -88.93135 -14.42359 -14.41984 -10.30031
 Alpha  occ. eigenvalues --  -10.29657 -10.25627 -10.25508 -10.24332 -10.24251
 Alpha  occ. eigenvalues --  -10.23819 -10.23597 -10.22748 -10.21039 -10.20975
 Alpha  occ. eigenvalues --  -10.20786 -10.20737 -10.20683 -10.20320 -10.20258
 Alpha  occ. eigenvalues --  -10.20169 -10.20103 -10.20000 -10.18403 -10.18223
 Alpha  occ. eigenvalues --   -7.99400  -7.99263  -5.95847  -5.95719  -5.95480
 Alpha  occ. eigenvalues --   -5.95352  -5.94997  -5.94846  -1.02044  -1.01875
 Alpha  occ. eigenvalues --   -0.87718  -0.87608  -0.85398  -0.84519  -0.82005
 Alpha  occ. eigenvalues --   -0.78870  -0.77489  -0.77224  -0.75752  -0.74934
 Alpha  occ. eigenvalues --   -0.74242  -0.70978  -0.66334  -0.65966  -0.65725
 Alpha  occ. eigenvalues --   -0.63473  -0.62137  -0.61232  -0.60093  -0.57437
 Alpha  occ. eigenvalues --   -0.56979  -0.53362  -0.52779  -0.52671  -0.50585
 Alpha  occ. eigenvalues --   -0.49890  -0.47732  -0.47317  -0.47271  -0.46752
 Alpha  occ. eigenvalues --   -0.46352  -0.45999  -0.45385  -0.45063  -0.43989
 Alpha  occ. eigenvalues --   -0.43590  -0.42206  -0.41491  -0.40653  -0.40418
 Alpha  occ. eigenvalues --   -0.39715  -0.39416  -0.38693  -0.38261  -0.37503
 Alpha  occ. eigenvalues --   -0.37374  -0.37132  -0.36749  -0.36415  -0.35942
 Alpha  occ. eigenvalues --   -0.35626  -0.35413  -0.35290  -0.32411  -0.31889
 Alpha  occ. eigenvalues --   -0.31715  -0.28114  -0.25211  -0.25156  -0.25063
 Alpha  occ. eigenvalues --   -0.19398
 Alpha virt. eigenvalues --   -0.09058  -0.01944  -0.01811  -0.01522  -0.01011
 Alpha virt. eigenvalues --   -0.00410  -0.00195   0.01853   0.05932   0.06929
 Alpha virt. eigenvalues --    0.07765   0.08876   0.09904   0.11095   0.11939

 Mulliken charges:
               1
     1  C   -0.216769
     2  C   -0.098661
     3  C   -0.231484
     4  C    0.143693
     5  C    0.131143
     6  S    0.282977
     7  C   -0.169072
     8  C    0.368387
     9  N   -0.507469
    10  S    0.281206
    11  C   -0.171021
    12  C    0.372777
    13  N   -0.515898
    14  C   -0.195059
    15  C   -0.137233
    16  C   -0.169300
    17  C   -0.166195
    18  C   -0.193535
    19  C   -0.134977
    20  C   -0.169364
    21  C   -0.163560
    22  C   -0.172693
    23  C   -0.461634
    24  C   -0.183956
    25  C   -0.465913
    26  H    0.199191
    27  H    0.195310
    28  H    0.186590
    29  H    0.190383
    30  H    0.174056
    31  H    0.175859
    32  H    0.193653
    33  H    0.191402
    34  H    0.175218
    35  H    0.176960
    36  H    0.195572
    37  H    0.205132
    38  H    0.205724
    39  H    0.176622
    40  H    0.175551
    41  H    0.175584
    42  H    0.204421
    43  H    0.207223
    44  H    0.181013
    45  H    0.179271
    46  H    0.178878
 Sum of Mulliken charges =   1.00000

 Dipole moment (field-independent basis, Debye):
    X=              1.1910    Y=              0.2264    Z=              1.2752  Tot=              1.7595
 Quadrupole moment (field-independent basis, Debye-Ang):
   XX=            -47.8060   YY=           -124.5033   ZZ=           -163.4116
   XY=             15.2906   XZ=              1.6482   YZ=              1.0167

 Normal termination of Gaussian 16 at Mon Nov  6 21:25:48 2023.
