 Gaussian 16, Revision C.02,
 Gaussian 16:  ES64L-G16RevC.02  7-Dec-2021

 ---------------------------------------------
 # opt b3lyp/6-31g* scrf(smd, solvent=ethanol)
 ---------------------------------------------

 ---
 B-2
 ---
 Symbolic Z-matrix:
 Charge =  0 Multiplicity = 1

 SCF Done:  E(RB3LYP) =  -390.678959616     A.U. after   11 cycles
 SCF Done:  E(RB3LYP) =  -390.678992729     A.U. after    8 cycles
 SCF Done:  E(RB3LYP) =  -390.678993690     A.U. after    6 cycles
 Optimization completed.
    -- Stationary point found.

                         Standard orientation:
 ---------------------------------------------------------------------
 Center     Atomic      Atomic             Coordinates (Angstroms)
 Number     Number       Type             X           Y           Z
 ---------------------------------------------------------------------
      1          6           0        4.185268   -0.987693   -0.000026
      2          6           0        2.967326   -0.100418   -0.000015
      3          6           0        1.723857   -0.637125   -0.000042
      4          6           0        0.453060    0.063952   -0.000018
      5          6           0       -0.741743   -0.576886   -0.000013
      6          6           0       -2.066003    0.044301    0.000012
      7          6           0       -3.153358   -0.763844    0.000007
      8          6           0       -4.604229   -0.390270   -0.000017
      9          6           0        3.265046    1.376296    0.000078
     10          6           0       -2.137204    1.553649    0.000029
     11          1           0        4.816654   -0.791757   -0.879331
     12          1           0        4.816720   -0.791696    0.879218
     13          1           0        3.921194   -2.050591    0.000022
     14          1           0        1.650951   -1.726436   -0.000081
     15          1           0        0.471022    1.151325   -0.000007
     16          1           0       -0.736317   -1.668580   -0.000028
     17          1           0       -2.966246   -1.839356   -0.000042
     18          1           0       -4.780265    0.688701    0.000912
     19          1           0       -5.112273   -0.813290   -0.879094
     20          1           0       -5.112675   -0.814905    0.878034
     21          1           0        2.370710    2.004225   -0.000337
     22          1           0        3.866985    1.647436    0.879478
     23          1           0        3.867781    1.647388   -0.878786
     24          1           0       -1.631134    1.970293   -0.880736
     25          1           0       -3.164204    1.925167    0.000087
     26          1           0       -1.631018    1.970302    0.880723
 ---------------------------------------------------------------------

 The electronic state is 1-A.
 Alpha  occ. eigenvalues --  -10.19006 -10.18694 -10.17973 -10.17815 -10.17734
 Alpha  occ. eigenvalues --  -10.17312 -10.17246 -10.17112 -10.17042 -10.16992
 Alpha  occ. eigenvalues --   -0.81987  -0.80128  -0.75344  -0.71381  -0.68295
 Alpha  occ. eigenvalues --   -0.67416  -0.64346  -0.56288  -0.52125  -0.50307
 Alpha  occ. eigenvalues --   -0.46901  -0.44876  -0.43091  -0.42219  -0.41197
 Alpha  occ. eigenvalues --   -0.40536  -0.39307  -0.37532  -0.37458  -0.36697
 Alpha  occ. eigenvalues --   -0.36278  -0.35604  -0.34646  -0.33142  -0.31870
 Alpha  occ. eigenvalues --   -0.31280  -0.25584  -0.18815
 Alpha virt. eigenvalues --   -0.02866   0.05504   0.10624   0.11102   0.11227
 Alpha virt. eigenvalues --    0.11822   0.14281   0.14546   0.15543   0.16172
 Alpha virt. eigenvalues --    0.17335   0.17725   0.18629   0.19824   0.19829

 Mulliken charges:
               1
     1  C   -0.528438
     2  C    0.155630
     3  C   -0.211489
     4  C   -0.159818
     5  C   -0.211109
     6  C    0.177876
     7  C   -0.198389
     8  C   -0.512969
     9  C   -0.533987
    10  C   -0.550685
    11  H    0.163736
    12  H    0.163734
    13  H    0.164233
    14  H    0.132156
    15  H    0.151913
    16  H    0.139525
    17  H    0.142044
    18  H    0.170896
    19  H    0.168118
    20  H    0.168101
    21  H    0.171622
    22  H    0.166881
    23  H    0.166870
    24  H    0.167550
    25  H    0.168452
    26  H    0.167546
 Sum of Mulliken charges =  -0.00000

 Dipole moment (field-independent basis, Debye):
    X=              0.1378    Y=              0.5208    Z=             -0.0001  Tot=              0.5387
 Quadrupole moment (field-independent basis, Debye-Ang):
   XX=            -52.3770   YY=            -58.8209   ZZ=            -65.9888
   XY=              0.9781   XZ=              0.0010   YZ=              0.0003

 Normal termination of Gaussian 16 at Mon Nov  6 21:38:15 2023.
