 Gaussian 16, Revision C.02,
 Gaussian 16:  ES64L-G16RevC.02  7-Dec-2021

 ---------------------------------------------
 # opt b3lyp/6-31g* scrf(smd, solvent=ethanol)
 ---------------------------------------------

 ---
 A-1
 ---
 Symbolic Z-matrix:
 Charge =  1 Multiplicity = 1

 SCF Done:  E(RB3LYP) =  -1641.24600074     A.U. after   13 cycles
 SCF Done:  E(RB3LYP) =  -1641.24614080     A.U. after    9 cycles
 SCF Done:  E(RB3LYP) =  -1641.24619860     A.U. after    9 cycles
 SCF Done:  E(RB3LYP) =  -1641.24621195     A.U. after    9 cycles
 SCF Done:  E(RB3LYP) =  -1641.24621437     A.U. after    8 cycles
 SCF Done:  E(RB3LYP) =  -1641.24621495     A.U. after    7 cycles
 SCF Done:  E(RB3LYP) =  -1641.24621515     A.U. after    7 cycles
 SCF Done:  E(RB3LYP) =  -1641.24621523     A.U. after    6 cycles
 Optimization completed.
    -- Stationary point found.

                         Standard orientation:
 ---------------------------------------------------------------------
 Center     Atomic      Atomic             Coordinates (Angstroms)
 Number     Number       Type             X           Y           Z
 ---------------------------------------------------------------------
      1          6           0       -1.256965    0.205271   -0.042219
      2          6           0       -0.000000    0.814693   -0.000002
      3          6           0        1.256965    0.205270    0.042217
      4          7           0        2.426275    0.894509    0.166655
      5         16           0       -1.564912   -1.526029    0.078425
      6          6           0       -3.304588   -1.261616   -0.007283
      7          6           0       -3.583954    0.107639   -0.123757
      8          7           0       -2.426276    0.894510   -0.166656
      9         16           0        1.564911   -1.526029   -0.078427
     10          6           0        3.304587   -1.261617    0.007283
     11          6           0        3.583954    0.107638    0.123757
     12          6           0       -4.315958   -2.218560    0.035976
     13          6           0       -5.636156   -1.775167   -0.033244
     14          6           0       -5.924617   -0.407329   -0.140796
     15          6           0       -4.911141    0.547955   -0.186206
     16          6           0        4.315957   -2.218560   -0.035974
     17          6           0        5.636156   -1.775168    0.033247
     18          6           0        5.924617   -0.407330    0.140799
     19          6           0        4.911140    0.547954    0.186208
     20          6           0       -2.492006    2.363256   -0.315846
     21          6           0       -2.556900    3.090650    1.023861
     22          6           0        2.492006    2.363255    0.315846
     23          6           0        2.556903    3.090650   -1.023860
     24          1           0        0.000000    1.894961   -0.000003
     25          1           0       -4.083835   -3.275367    0.123603
     26          1           0       -6.445215   -2.498520    0.000516
     27          1           0       -6.958622   -0.078893   -0.187275
     28          1           0       -5.153648    1.601819   -0.260420
     29          1           0        4.083835   -3.275367   -0.123602
     30          1           0        6.445214   -2.498521   -0.000512
     31          1           0        6.958621   -0.078894    0.187279
     32          1           0        5.153647    1.601818    0.260422
     33          1           0       -1.627524    2.675860   -0.903977
     34          1           0       -3.373636    2.576366   -0.922644
     35          1           0       -3.445079    2.793893    1.591196
     36          1           0       -1.670968    2.885733    1.633678
     37          1           0       -2.608849    4.169875    0.843302
     38          1           0        1.627522    2.675859    0.903975
     39          1           0        3.373634    2.576364    0.922647
     40          1           0        3.445083    2.793892   -1.591193
     41          1           0        1.670972    2.885736   -1.633679
     42          1           0        2.608855    4.169875   -0.843300
 ---------------------------------------------------------------------

 The electronic state is 1-A.
 Alpha  occ. eigenvalues --  -88.93912 -88.93912 -14.42376 -14.42376 -10.30659
 Alpha  occ. eigenvalues --  -10.30659 -10.25787 -10.25787 -10.24530 -10.24529
 Alpha  occ. eigenvalues --  -10.23828 -10.23828 -10.21677 -10.21220 -10.21220
 Alpha  occ. eigenvalues --  -10.20877 -10.20877 -10.20360 -10.20360 -10.20168
 Alpha  occ. eigenvalues --  -10.20168 -10.18374 -10.18374  -8.00025  -8.00023
 Alpha  occ. eigenvalues --   -5.96478  -5.96478  -5.96104  -5.96102  -5.95617
 Alpha  occ. eigenvalues --   -5.95615  -1.02535  -1.02195  -0.88003  -0.87868
 Alpha  occ. eigenvalues --   -0.86098  -0.83947  -0.80803  -0.77911  -0.77539
 Alpha  occ. eigenvalues --   -0.76518  -0.75243  -0.74491  -0.72072  -0.66378
 Alpha  occ. eigenvalues --   -0.66121  -0.65871  -0.63385  -0.61472  -0.61450
 Alpha  occ. eigenvalues --   -0.59256  -0.56966  -0.53728  -0.53081  -0.52871
 Alpha  occ. eigenvalues --   -0.51042  -0.50214  -0.48171  -0.47974  -0.47215
 Alpha  occ. eigenvalues --   -0.46517  -0.46185  -0.45840  -0.45708  -0.43996
 Alpha  occ. eigenvalues --   -0.43714  -0.43574  -0.42308  -0.40711  -0.40462
 Alpha  occ. eigenvalues --   -0.39782  -0.39431  -0.38495  -0.37966  -0.37664
 Alpha  occ. eigenvalues --   -0.37392  -0.37106  -0.36328  -0.36076  -0.36019
 Alpha  occ. eigenvalues --   -0.35304  -0.34900  -0.32480  -0.31930  -0.29881
 Alpha  occ. eigenvalues --   -0.26267  -0.25580  -0.25143  -0.20926
 Alpha virt. eigenvalues --   -0.07948  -0.03235  -0.02177  -0.01777  -0.00967
 Alpha virt. eigenvalues --   -0.00029   0.01464   0.04341   0.05237   0.07777
 Alpha virt. eigenvalues --    0.08245   0.10931   0.11044   0.12276   0.12696

 Mulliken charges:
               1
     1  C    0.141877
     2  C   -0.275460
     3  C    0.141877
     4  N   -0.517736
     5  S    0.310638
     6  C   -0.181484
     7  C    0.372354
     8  N   -0.517737
     9  S    0.310638
    10  C   -0.181484
    11  C    0.372354
    12  C   -0.191602
    13  C   -0.136137
    14  C   -0.167495
    15  C   -0.163085
    16  C   -0.191602
    17  C   -0.136137
    18  C   -0.167495
    19  C   -0.163085
    20  C   -0.176600
    21  C   -0.462436
    22  C   -0.176600
    23  C   -0.462436
    24  H    0.232973
    25  H    0.193726
    26  H    0.176183
    27  H    0.177994
    28  H    0.196034
    29  H    0.193726
    30  H    0.176184
    31  H    0.177994
    32  H    0.196034
    33  H    0.207797
    34  H    0.209128
    35  H    0.177394
    36  H    0.176415
    37  H    0.178277
    38  H    0.207797
    39  H    0.209128
    40  H    0.177394
    41  H    0.176415
    42  H    0.178277
 Sum of Mulliken charges =   1.00000

 Dipole moment (field-independent basis, Debye):
    X=              0.0000    Y=              5.2495    Z=              0.0000  Tot=              5.2495
 Quadrupole moment (field-independent basis, Debye-Ang):
   XX=            -66.0213   YY=           -108.9119   ZZ=           -151.5802
   XY=             -0.0000   XZ=              2.4471   YZ=             -0.0000

 Normal termination of Gaussian 16 at Mon Nov  6 21:21:31 2023.
