 Gaussian 16, Revision C.02,
 Gaussian 16:  ES64L-G16RevC.02  7-Dec-2021

 ---------------------------------------------
 # opt b3lyp/6-31g* scrf(smd, solvent=ethanol)
 ---------------------------------------------

 ---
 A-4
 ---
 Symbolic Z-matrix:
 Charge =  1 Multiplicity = 1

 SCF Done:  E(RB3LYP) =  -1873.47069666     A.U. after   13 cycles
 SCF Done:  E(RB3LYP) =  -1873.47081073     A.U. after   10 cycles
 SCF Done:  E(RB3LYP) =  -1873.47078667     A.U. after   10 cycles
 SCF Done:  E(RB3LYP) =  -1873.47089482     A.U. after    9 cycles
 SCF Done:  E(RB3LYP) =  -1873.47090055     A.U. after    9 cycles
 SCF Done:  E(RB3LYP) =  -1873.47090473     A.U. after    8 cycles
 SCF Done:  E(RB3LYP) =  -1873.47090605     A.U. after    8 cycles
 SCF Done:  E(RB3LYP) =  -1873.47090672     A.U. after    8 cycles
 SCF Done:  E(RB3LYP) =  -1873.47090716     A.U. after    8 cycles
 SCF Done:  E(RB3LYP) =  -1873.47090726     A.U. after    7 cycles
 SCF Done:  E(RB3LYP) =  -1873.47090728     A.U. after    6 cycles
 Optimization completed.
    -- Stationary point found.

                         Standard orientation:
 ---------------------------------------------------------------------
 Center     Atomic      Atomic             Coordinates (Angstroms)
 Number     Number       Type             X           Y           Z
 ---------------------------------------------------------------------
      1          6           0       -3.659839   -1.076674   -0.121357
      2          6           0       -2.379018   -0.519211   -0.083452
      3          6           0       -1.195213   -1.253809   -0.065159
      4          6           0        0.062456   -0.643861   -0.032943
      5          6           0       -4.840721   -0.332850   -0.124156
      6         16           0       -4.887934    1.431278   -0.008211
      7          6           0       -6.650717    1.419400   -0.041464
      8          6           0       -7.131969    0.103486   -0.138436
      9          7           0       -6.103426   -0.844449   -0.207496
     10          6           0       -7.512765    2.510986    0.021080
     11          6           0       -8.886609    2.266235   -0.007782
     12          6           0       -9.374117    0.955735   -0.094211
     13          6           0       -8.510400   -0.137300   -0.158648
     14          6           0       -6.375861   -2.289898   -0.331316
     15          6           0       -6.493599   -2.986377    1.021571
     16          6           0        1.285148   -1.314951   -0.007231
     17          6           0        2.506239   -0.634909    0.021199
     18          6           0        3.744112   -1.281953    0.017404
     19          6           0        5.044349   -0.759169    0.034851
     20         16           0        6.379428   -1.873937   -0.283814
     21          6           0        7.558114   -0.580491   -0.121938
     22          6           0        6.909749    0.632622    0.161204
     23          7           0        5.516469    0.498364    0.268603
     24          6           0        8.943835   -0.657956   -0.243514
     25          6           0        9.683885    0.513472   -0.082897
     26          6           0        9.042855    1.729074    0.191625
     27          6           0        7.656368    1.806229    0.315968
     28          6           0        4.681074    1.640772    0.689003
     29          6           0        4.230026    2.513537   -0.479511
     30          1           0       -3.743308   -2.158516   -0.139118
     31          1           0       -2.276157    0.566973   -0.068985
     32          1           0       -1.252103   -2.341947   -0.076872
     33          1           0        0.088343    0.447212   -0.026034
     34          1           0       -7.126873    3.523275    0.092513
     35          1           0       -9.579460    3.100929    0.041199
     36          1           0      -10.445781    0.780193   -0.108878
     37          1           0       -8.906164   -1.144838   -0.216512
     38          1           0       -7.296968   -2.391243   -0.908256
     39          1           0       -5.579590   -2.725951   -0.936771
     40          1           0       -6.702925   -4.049915    0.862028
     41          1           0       -5.564292   -2.900824    1.594270
     42          1           0       -7.309024   -2.561361    1.616175
     43          1           0        1.288945   -2.404766   -0.009554
     44          1           0        2.450493    0.448567    0.011737
     45          1           0        3.711023   -2.367367   -0.058037
     46          1           0        9.432432   -1.603332   -0.458504
     47          1           0       10.765223    0.479700   -0.175694
     48          1           0        9.632280    2.633764    0.307704
     49          1           0        7.176384    2.756892    0.518337
     50          1           0        3.838118    1.239490    1.252369
     51          1           0        5.277778    2.220371    1.396674
     52          1           0        3.643681    1.944338   -1.208085
     53          1           0        3.608361    3.331149   -0.098279
     54          1           0        5.090091    2.949514   -0.998127
 ---------------------------------------------------------------------

 The electronic state is 1-A.
 Alpha  occ. eigenvalues --  -88.93002 -88.92847 -14.42007 -14.41646 -10.29596
 Alpha  occ. eigenvalues --  -10.29195 -10.25481 -10.25351 -10.24162 -10.24062
 Alpha  occ. eigenvalues --  -10.23610 -10.23446 -10.21557 -10.21548 -10.20911
 Alpha  occ. eigenvalues --  -10.20872 -10.20829 -10.20642 -10.20535 -10.20398
 Alpha  occ. eigenvalues --  -10.20148 -10.20049 -10.19984 -10.19975 -10.19859
 Alpha  occ. eigenvalues --  -10.19120 -10.19112 -10.18266 -10.18130  -7.99131
 Alpha  occ. eigenvalues --   -7.98970  -5.95579  -5.95425  -5.95215  -5.95061
 Alpha  occ. eigenvalues --   -5.94726  -5.94552  -1.01709  -1.01543  -0.87532
 Alpha  occ. eigenvalues --   -0.87411  -0.84843  -0.84626  -0.82985  -0.81221
 Alpha  occ. eigenvalues --   -0.78962  -0.77439  -0.77163  -0.76315  -0.74937
 Alpha  occ. eigenvalues --   -0.74516  -0.73153  -0.70139  -0.66447  -0.65804
 Alpha  occ. eigenvalues --   -0.65629  -0.63461  -0.62637  -0.61264  -0.60540
 Alpha  occ. eigenvalues --   -0.58682  -0.57099  -0.56396  -0.55957  -0.52649
 Alpha  occ. eigenvalues --   -0.52514  -0.52323  -0.50586  -0.50132  -0.48482
 Alpha  occ. eigenvalues --   -0.47185  -0.47072  -0.46961  -0.46365  -0.46309
 Alpha  occ. eigenvalues --   -0.45727  -0.45327  -0.44561  -0.43804  -0.43486
 Alpha  occ. eigenvalues --   -0.42934  -0.41982  -0.40529  -0.40389  -0.39888
 Alpha  occ. eigenvalues --   -0.39615  -0.39110  -0.38974  -0.37999  -0.37771
 Alpha  occ. eigenvalues --   -0.37231  -0.37143  -0.37000  -0.36823  -0.36388
 Alpha  occ. eigenvalues --   -0.36033  -0.35606  -0.35556  -0.35272  -0.35061
 Alpha  occ. eigenvalues --   -0.34629  -0.31916  -0.31696  -0.31452  -0.28582
 Alpha  occ. eigenvalues --   -0.26151  -0.25029  -0.24912  -0.22880  -0.17805
 Alpha virt. eigenvalues --   -0.10017  -0.03846  -0.01713  -0.01652  -0.00748
 Alpha virt. eigenvalues --   -0.00536  -0.00229   0.00292   0.03451   0.06659
 Alpha virt. eigenvalues --    0.06965   0.07632   0.08855   0.09343   0.09618

 Mulliken charges:
               1
     1  C   -0.217278
     2  C   -0.128286
     3  C   -0.169735
     4  C   -0.128892
     5  C    0.128815
     6  S    0.274851
     7  C   -0.171277
     8  C    0.373231
     9  N   -0.516860
    10  C   -0.196022
    11  C   -0.138399
    12  C   -0.169780
    13  C   -0.168626
    14  C   -0.172052
    15  C   -0.461665
    16  C   -0.169692
    17  C   -0.102054
    18  C   -0.231354
    19  C    0.142423
    20  S    0.275537
    21  C   -0.169616
    22  C    0.369309
    23  N   -0.511264
    24  C   -0.194478
    25  C   -0.136531
    26  C   -0.169865
    27  C   -0.165703
    28  C   -0.182427
    29  C   -0.463918
    30  H    0.194405
    31  H    0.179538
    32  H    0.159403
    33  H    0.171670
    34  H    0.189023
    35  H    0.172607
    36  H    0.174539
    37  H    0.191921
    38  H    0.203982
    39  H    0.203916
    40  H    0.175550
    41  H    0.175152
    42  H    0.174606
    43  H    0.160008
    44  H    0.187107
    45  H    0.181678
    46  H    0.189961
    47  H    0.173910
    48  H    0.175724
    49  H    0.194097
    50  H    0.204198
    51  H    0.205312
    52  H    0.179299
    53  H    0.177068
    54  H    0.176932
 Sum of Mulliken charges =   1.00000

 Dipole moment (field-independent basis, Debye):
    X=             -1.0942    Y=              0.3814    Z=              0.4189  Tot=              1.2322
 Quadrupole moment (field-independent basis, Debye-Ang):
   XX=             37.0078   YY=           -146.1221   ZZ=           -189.8958
   XY=             26.9993   XZ=              5.1114   YZ=              4.7025

 Normal termination of Gaussian 16 at Mon Nov  6 21:36:26 2023.
