 Gaussian 16, Revision C.02,
 Gaussian 16:  ES64L-G16RevC.02  7-Dec-2021

 ---------------------------------------------
 # opt b3lyp/6-31g* scrf(smd, solvent=ethanol)
 ---------------------------------------------

 ---
 A-3
 ---
 Symbolic Z-matrix:
 Charge =  1 Multiplicity = 1

 SCF Done:  E(RB3LYP) =  -1796.06156966     A.U. after   13 cycles
 SCF Done:  E(RB3LYP) =  -1796.06174440     A.U. after    9 cycles
 SCF Done:  E(RB3LYP) =  -1796.06173030     A.U. after    9 cycles
 SCF Done:  E(RB3LYP) =  -1796.06173989     A.U. after    9 cycles
 SCF Done:  E(RB3LYP) =  -1796.06176334     A.U. after    9 cycles
 SCF Done:  E(RB3LYP) =  -1796.06176541     A.U. after    8 cycles
 SCF Done:  E(RB3LYP) =  -1796.06176656     A.U. after    8 cycles
 SCF Done:  E(RB3LYP) =  -1796.06176673     A.U. after    6 cycles
 SCF Done:  E(RB3LYP) =  -1796.06176677     A.U. after    6 cycles
 SCF Done:  E(RB3LYP) =  -1796.06176697     A.U. after    7 cycles
 Optimization completed.
    -- Stationary point found.

                         Standard orientation:
 ---------------------------------------------------------------------
 Center     Atomic      Atomic             Coordinates (Angstroms)
 Number     Number       Type             X           Y           Z
 ---------------------------------------------------------------------
      1          6           0       -2.423016    1.084205   -0.244892
      2          6           0       -1.156140    0.500941   -0.180453
      3          6           0        0.043144    1.208739   -0.241262
      4          6           0        1.286563    0.572584   -0.171763
      5          6           0       -3.621693    0.371750   -0.167035
      6         16           0       -3.707288   -1.375177    0.089231
      7          6           0       -5.469348   -1.322892    0.085831
      8          6           0       -5.921317   -0.007316   -0.105963
      9          7           0       -4.872168    0.906684   -0.266782
     10          6           0       -6.355667   -2.384334    0.248946
     11          6           0       -7.723419   -2.107720    0.224148
     12          6           0       -8.181428   -0.796015    0.043365
     13          6           0       -7.293364    0.266408   -0.121533
     14          6           0       -5.115689    2.345808   -0.489755
     15          6           0       -5.197493    3.137440    0.812602
     16          6           0        2.500846    1.259692   -0.189413
     17          6           0        3.815946    0.776119   -0.123055
     18         16           0        5.103940    1.946003    0.185379
     19          6           0        6.324023    0.682091    0.143631
     20          6           0        5.721951   -0.563272   -0.097312
     21          7           0        4.330601   -0.476852   -0.265795
     22          6           0        7.700988    0.807266    0.315840
     23          6           0        8.478398   -0.348775    0.248421
     24          6           0        7.883204   -1.595804    0.013635
     25          6           0        6.505760   -1.720759   -0.160552
     26          6           0        3.547788   -1.664475   -0.662824
     27          6           0        3.082626   -2.499999    0.527163
     28          1           0       -2.481627    2.162522   -0.350365
     29          1           0       -1.077769   -0.582510   -0.076437
     30          1           0        0.009655    2.292697   -0.345548
     31          1           0        1.267935   -0.506892   -0.063486
     32          1           0       -5.992690   -3.397386    0.393288
     33          1           0       -8.435032   -2.918107    0.350470
     34          1           0       -9.248735   -0.595502    0.033507
     35          1           0       -7.664767    1.276794   -0.249766
     36          1           0       -4.320465    2.720539   -1.136211
     37          1           0       -6.043818    2.425771   -1.058827
     38          1           0       -4.261180    3.071824    1.376472
     39          1           0       -5.387272    4.191490    0.581758
     40          1           0       -6.012107    2.772774    1.447020
     41          1           0        2.433714    2.346039   -0.203777
     42          1           0        8.154186    1.776781    0.498464
     43          1           0        9.553606   -0.278373    0.382714
     44          1           0        8.502046   -2.487106   -0.030506
     45          1           0        6.060041   -2.693873   -0.331789
     46          1           0        2.712944   -1.316417   -1.272279
     47          1           0        4.189565   -2.254239   -1.321209
     48          1           0        3.936255   -2.883367    1.095563
     49          1           0        2.450768   -1.921140    1.208314
     50          1           0        2.503307   -3.354457    0.160292
 ---------------------------------------------------------------------

 The electronic state is 1-A.
 Alpha  occ. eigenvalues --  -88.93106 -88.92954 -14.42150 -14.41778 -10.29755
 Alpha  occ. eigenvalues --  -10.29363 -10.25533 -10.25404 -10.24229 -10.24133
 Alpha  occ. eigenvalues --  -10.23684 -10.23504 -10.21798 -10.21760 -10.20964
 Alpha  occ. eigenvalues --  -10.20887 -10.20701 -10.20588 -10.20467 -10.20194
 Alpha  occ. eigenvalues --  -10.20096 -10.20070 -10.20029 -10.19915 -10.19293
 Alpha  occ. eigenvalues --  -10.18311 -10.18167  -7.99236  -7.99079  -5.95683
 Alpha  occ. eigenvalues --   -5.95534  -5.95318  -5.95168  -5.94832  -5.94661
 Alpha  occ. eigenvalues --   -1.01847  -1.01674  -0.87603  -0.87484  -0.85048
 Alpha  occ. eigenvalues --   -0.84610  -0.82651  -0.80238  -0.77870  -0.77306
 Alpha  occ. eigenvalues --   -0.76874  -0.75217  -0.74712  -0.73723  -0.70501
 Alpha  occ. eigenvalues --   -0.66376  -0.65860  -0.65670  -0.63380  -0.62446
 Alpha  occ. eigenvalues --   -0.61220  -0.60344  -0.58013  -0.57011  -0.56283
 Alpha  occ. eigenvalues --   -0.52744  -0.52605  -0.52251  -0.51222  -0.49513
 Alpha  occ. eigenvalues --   -0.48882  -0.47168  -0.47131  -0.46657  -0.46439
 Alpha  occ. eigenvalues --   -0.45843  -0.45640  -0.45012  -0.43914  -0.43728
 Alpha  occ. eigenvalues --   -0.43504  -0.42051  -0.40863  -0.40391  -0.40290
 Alpha  occ. eigenvalues --   -0.39752  -0.39316  -0.38868  -0.38032  -0.37601
 Alpha  occ. eigenvalues --   -0.37241  -0.37169  -0.36865  -0.36726  -0.36273
 Alpha  occ. eigenvalues --   -0.35759  -0.35596  -0.35326  -0.35152  -0.33819
 Alpha  occ. eigenvalues --   -0.31797  -0.31697  -0.29986  -0.27039  -0.25094
 Alpha  occ. eigenvalues --   -0.24978  -0.23980  -0.18463
 Alpha virt. eigenvalues --   -0.09601  -0.02712  -0.01753  -0.01680  -0.00785
 Alpha virt. eigenvalues --   -0.00348  -0.00312   0.00743   0.05261   0.06598
 Alpha virt. eigenvalues --    0.07310   0.08489   0.08907   0.09718   0.10993

 Mulliken charges:
               1
     1  C   -0.217298
     2  C   -0.128647
     3  C   -0.169847
     4  C   -0.102219
     5  C    0.131133
     6  S    0.277426
     7  C   -0.171360
     8  C    0.373121
     9  N   -0.516351
    10  C   -0.195600
    11  C   -0.137995
    12  C   -0.169714
    13  C   -0.167454
    14  C   -0.172235
    15  C   -0.461635
    16  C   -0.232421
    17  C    0.143706
    18  S    0.278710
    19  C   -0.169565
    20  C    0.369047
    21  N   -0.509163
    22  C   -0.193978
    23  C   -0.135900
    24  C   -0.169692
    25  C   -0.164761
    26  C   -0.182152
    27  C   -0.464644
    28  H    0.195283
    29  H    0.182136
    30  H    0.162421
    31  H    0.189661
    32  H    0.189493
    33  H    0.173172
    34  H    0.175050
    35  H    0.192633
    36  H    0.204485
    37  H    0.204820
    38  H    0.175268
    39  H    0.175952
    40  H    0.174941
    41  H    0.183175
    42  H    0.190608
    43  H    0.174445
    44  H    0.176245
    45  H    0.194656
    46  H    0.204090
    47  H    0.205877
    48  H    0.177452
    49  H    0.180053
    50  H    0.177573
 Sum of Mulliken charges =   1.00000

 Dipole moment (field-independent basis, Debye):
    X=             -1.1039    Y=             -0.0946    Z=             -1.1007  Tot=              1.5618
 Quadrupole moment (field-independent basis, Debye-Ang):
   XX=            -11.0488   YY=           -135.4397   ZZ=           -176.6670
   XY=            -21.2999   XZ=              1.2539   YZ=             -0.8754

 Normal termination of Gaussian 16 at Mon Nov  6 21:31:28 2023.
