 Gaussian 16, Revision C.02,
 Gaussian 16:  ES64L-G16RevC.02  7-Dec-2021

 ----------------------------------------------------------------
 # td=(nstates=40) b3lyp/6-311+g(2d,p) scrf(smd, solvent=ethanol)
 ----------------------------------------------------------------

 ---
 B-1
 ---
 Symbolic Z-matrix:
 Charge =  0 Multiplicity = 1

                         Standard orientation:
 ---------------------------------------------------------------------
 Center     Atomic      Atomic             Coordinates (Angstroms)
 Number     Number       Type             X           Y           Z
 ---------------------------------------------------------------------
      1          6           0        4.186043   -0.985243   -0.000113
      2          6           0        2.965678   -0.099955    0.000017
      3          6           0        1.724259   -0.636470   -0.000213
      4          6           0        0.452578    0.059668   -0.000179
      5          6           0       -0.741079   -0.579413   -0.000205
      6          6           0       -2.064372    0.040415   -0.000137
      7          6           0       -3.152878   -0.763225    0.000253
      8          6           0       -4.604173   -0.385851    0.000427
      9          6           0        3.260391    1.378273    0.000567
     10          6           0       -2.133175    1.550261   -0.000541
     11          1           0        4.817179   -0.791217   -0.879673
     12          1           0        4.817098   -0.791647    0.879598
     13          1           0        3.922096   -2.047445   -0.000374
     14          1           0        1.652379   -1.725280   -0.000493
     15          1           0        0.469127    1.146468   -0.000113
     16          1           0       -0.735417   -1.670538   -0.000304
     17          1           0       -2.968126   -1.838635    0.000440
     18          1           0       -4.773466    0.693748    0.001475
     19          1           0       -5.114894   -0.802710   -0.879231
     20          1           0       -5.115042   -0.804470    0.879137
     21          1           0        2.363003    2.000757    0.000075
     22          1           0        3.859006    1.653716    0.880554
     23          1           0        3.860320    1.654180   -0.878355
     24          1           0       -1.627265    1.964044   -0.882102
     25          1           0       -3.158688    1.923675   -0.000452
     26          1           0       -1.626926    1.964596    0.880567
 ---------------------------------------------------------------------

 SCF Done:  E(RB3LYP) =  -390.797921544     A.U. after   12 cycles

 Excitation energies and oscillator strengths:

 Excited State   1:      Singlet-A      4.1846 eV  296.29 nm  f=1.3803  <S**2>=0.000
      38 -> 39         0.70618
 This state for optimization and/or second-order correction.
 Total Energy, E(TD-HF/TD-DFT) =  -390.644139492
 Copying the excited state density for this state as the 1-particle RhoCI density.

 Excited State   2:      Singlet-A      4.8875 eV  253.68 nm  f=0.0015  <S**2>=0.000
      38 -> 40         0.69575

 Excited State   3:      Singlet-A      5.2222 eV  237.42 nm  f=0.0007  <S**2>=0.000
      38 -> 41         0.69578

 Excited State   4:      Singlet-A      5.3458 eV  231.93 nm  f=0.0031  <S**2>=0.000
      38 -> 42         0.69474

 Excited State   5:      Singlet-A      5.3914 eV  229.97 nm  f=0.0139  <S**2>=0.000
      37 -> 39         0.52906
      38 -> 43         0.46160

 Excited State   6:      Singlet-A      5.7402 eV  215.99 nm  f=0.0137  <S**2>=0.000
      38 -> 45         0.68751

 Excited State   7:      Singlet-A      5.7507 eV  215.60 nm  f=0.0003  <S**2>=0.000
      38 -> 44         0.69332

 Excited State   8:      Singlet-A      5.9152 eV  209.60 nm  f=0.0003  <S**2>=0.000
      38 -> 46         0.68977

 Excited State   9:      Singlet-A      5.9868 eV  207.10 nm  f=0.0084  <S**2>=0.000
      37 -> 39        -0.40404
      38 -> 43         0.49245
      38 -> 49         0.18098
      38 -> 50         0.16607

 Excited State  10:      Singlet-A      6.1140 eV  202.79 nm  f=0.0001  <S**2>=0.000
      38 -> 47         0.43004
      38 -> 48         0.54796

 Excited State  11:      Singlet-A      6.1878 eV  200.37 nm  f=0.0001  <S**2>=0.000
      38 -> 46         0.12101
      38 -> 47         0.53837
      38 -> 48        -0.42216

 Excited State  12:      Singlet-A      6.1947 eV  200.15 nm  f=0.0108  <S**2>=0.000
      38 -> 43        -0.10489
      38 -> 49         0.65766
      38 -> 50        -0.15939

 Excited State  13:      Singlet-A      6.4208 eV  193.10 nm  f=0.0000  <S**2>=0.000
      38 -> 51         0.69391

 Excited State  14:      Singlet-A      6.4308 eV  192.80 nm  f=0.0037  <S**2>=0.000
      37 -> 39         0.14333
      38 -> 43        -0.11717
      38 -> 49         0.11023
      38 -> 50         0.65946

 Excited State  15:      Singlet-A      6.5884 eV  188.18 nm  f=0.0003  <S**2>=0.000
      37 -> 40         0.11845
      38 -> 52         0.67566

 Excited State  16:      Singlet-A      6.6235 eV  187.19 nm  f=0.0001  <S**2>=0.000
      35 -> 39         0.69836

 Excited State  17:      Singlet-A      6.7384 eV  184.00 nm  f=0.0000  <S**2>=0.000
      37 -> 40         0.67471
      38 -> 52        -0.13110

 Excited State  18:      Singlet-A      7.0037 eV  177.03 nm  f=0.0097  <S**2>=0.000
      34 -> 39        -0.13615
      37 -> 41         0.30443
      38 -> 53         0.59512

 Excited State  19:      Singlet-A      7.0043 eV  177.01 nm  f=0.0019  <S**2>=0.000
      36 -> 39         0.55245
      38 -> 49         0.10683
      38 -> 54         0.32780
      38 -> 57        -0.23347

 Excited State  20:      Singlet-A      7.0115 eV  176.83 nm  f=0.0005  <S**2>=0.000
      34 -> 39         0.68058
      38 -> 53         0.10837

 Excited State  21:      Singlet-A      7.0939 eV  174.78 nm  f=0.0000  <S**2>=0.000
      37 -> 41         0.58461
      37 -> 42         0.14519
      38 -> 53        -0.28160
      38 -> 55         0.19860

 Excited State  22:      Singlet-A      7.1131 eV  174.31 nm  f=0.0016  <S**2>=0.000
      36 -> 39        -0.26536
      38 -> 54         0.56713
      38 -> 56         0.22052
      38 -> 57         0.18353

 Excited State  23:      Singlet-A      7.1481 eV  173.45 nm  f=0.0099  <S**2>=0.000
      37 -> 41        -0.18549
      37 -> 42         0.40934
      38 -> 53         0.19665
      38 -> 55         0.49334

 Excited State  24:      Singlet-A      7.2101 eV  171.96 nm  f=0.0000  <S**2>=0.000
      37 -> 42         0.53852
      38 -> 55        -0.44156

 Excited State  25:      Singlet-A      7.2764 eV  170.39 nm  f=0.0028  <S**2>=0.000
      38 -> 54        -0.19596
      38 -> 56         0.65645

 Excited State  26:      Singlet-A      7.4162 eV  167.18 nm  f=0.0003  <S**2>=0.000
      32 -> 39         0.21698
      33 -> 39         0.65163

 Excited State  27:      Singlet-A      7.4298 eV  166.88 nm  f=0.0104  <S**2>=0.000
      36 -> 39         0.25116
      37 -> 43         0.28020
      38 -> 57         0.58376

 Excited State  28:      Singlet-A      7.5324 eV  164.60 nm  f=0.0010  <S**2>=0.000
      37 -> 44         0.16204
      38 -> 58         0.66593

 Excited State  29:      Singlet-A      7.5762 eV  163.65 nm  f=0.0923  <S**2>=0.000
      37 -> 43         0.43530
      37 -> 45         0.50908
      38 -> 57        -0.17244

 Excited State  30:      Singlet-A      7.5844 eV  163.47 nm  f=0.0009  <S**2>=0.000
      37 -> 44         0.65338
      38 -> 58        -0.17784

 Excited State  31:      Singlet-A      7.6197 eV  162.71 nm  f=0.1562  <S**2>=0.000
      36 -> 39         0.12567
      37 -> 43        -0.45858
      37 -> 45         0.46507
      38 -> 57         0.14972

 Excited State  32:      Singlet-A      7.6376 eV  162.33 nm  f=0.0001  <S**2>=0.000
      30 -> 39        -0.21555
      32 -> 39         0.59780
      33 -> 39        -0.23035
      38 -> 59        -0.10158

 Excited State  33:      Singlet-A      7.7009 eV  161.00 nm  f=0.0069  <S**2>=0.000
      32 -> 39         0.10325
      38 -> 59         0.67260

 Excited State  34:      Singlet-A      7.7461 eV  160.06 nm  f=0.0065  <S**2>=0.000
      37 -> 46         0.68037

 Excited State  35:      Singlet-A      7.8577 eV  157.79 nm  f=0.0002  <S**2>=0.000
      38 -> 60         0.68163

 Excited State  36:      Singlet-A      7.9249 eV  156.45 nm  f=0.0024  <S**2>=0.000
      31 -> 39         0.66517
      32 -> 39        -0.12895

 Excited State  37:      Singlet-A      7.9557 eV  155.84 nm  f=0.0026  <S**2>=0.000
      37 -> 47         0.40313
      37 -> 48         0.55091

 Excited State  38:      Singlet-A      7.9661 eV  155.64 nm  f=0.0022  <S**2>=0.000
      37 -> 49        -0.15459
      38 -> 61         0.67327

 Excited State  39:      Singlet-A      8.0352 eV  154.30 nm  f=0.0103  <S**2>=0.000
      30 -> 39        -0.34875
      32 -> 39        -0.13368
      36 -> 40         0.10045
      37 -> 46         0.10016
      37 -> 47         0.45458
      37 -> 48        -0.33000

 Excited State  40:      Singlet-A      8.0475 eV  154.07 nm  f=0.0006  <S**2>=0.000
      30 -> 39         0.55128
      31 -> 39         0.10853
      32 -> 39         0.17236
      37 -> 47         0.27696
      37 -> 48        -0.23633

 The electronic state is 1-A.
 Alpha  occ. eigenvalues --  -10.17877 -10.17588 -10.16695 -10.16598 -10.16522
 Alpha  occ. eigenvalues --  -10.16004 -10.15824 -10.15713 -10.15647 -10.15581
 Alpha  occ. eigenvalues --   -0.82773  -0.80839  -0.76041  -0.71895  -0.68731
 Alpha  occ. eigenvalues --   -0.67995  -0.65040  -0.56985  -0.52698  -0.50857
 Alpha  occ. eigenvalues --   -0.47605  -0.45655  -0.43751  -0.42722  -0.41748
 Alpha  occ. eigenvalues --   -0.41207  -0.39763  -0.38009  -0.37879  -0.37222
 Alpha  occ. eigenvalues --   -0.36888  -0.36119  -0.35441  -0.33735  -0.32531
 Alpha  occ. eigenvalues --   -0.32217  -0.26517  -0.19825
 Alpha virt. eigenvalues --   -0.04071   0.00824   0.01737   0.02497   0.03235
 Alpha virt. eigenvalues --    0.03586   0.04089   0.04191   0.05194   0.05454
 Alpha virt. eigenvalues --    0.05678   0.05956   0.06029   0.06901   0.08422

 Mulliken charges:
               1
     1  C   -0.650987
     2  C    0.351387
     3  C   -0.166630
     4  C    0.176459
     5  C    0.026820
     6  C    0.514376
     7  C   -0.145726
     8  C   -0.668206
     9  C   -0.705674
    10  C   -0.814738
    11  H    0.138760
    12  H    0.138744
    13  H    0.129995
    14  H    0.098941
    15  H    0.110718
    16  H    0.102927
    17  H    0.108688
    18  H    0.129084
    19  H    0.143304
    20  H    0.143256
    21  H    0.131212
    22  H    0.141148
    23  H    0.141105
    24  H    0.146376
    25  H    0.132307
    26  H    0.146355
 Sum of Mulliken charges =  -0.00000

 Dipole moment (field-independent basis, Debye):
    X=              0.1244    Y=              0.6014    Z=              0.0002  Tot=              0.6142
 Quadrupole moment (field-independent basis, Debye-Ang):
   XX=            -53.2936   YY=            -60.0198   ZZ=            -68.1095
   XY=              0.9700   XZ=              0.0012   YZ=              0.0002

 Normal termination of Gaussian 16 at Sun Oct 29 15:54:03 2023.
