 Gaussian 16, Revision C.02,
 Gaussian 16:  ES64L-G16RevC.02  7-Dec-2021

 -------------------------------------------------------------
 # td=(nstates=70) b3lyp/6-31g(d,p) scrf(smd, solvent=ethanol)
 -------------------------------------------------------------

 ---
 A-3
 ---
 Symbolic Z-matrix:
 Charge =  1 Multiplicity = 1

                         Standard orientation:
 ---------------------------------------------------------------------
 Center     Atomic      Atomic             Coordinates (Angstroms)
 Number     Number       Type             X           Y           Z
 ---------------------------------------------------------------------
      1          6           0       -2.428041    1.066524   -0.253176
      2          6           0       -1.163701    0.479343   -0.188922
      3          6           0        0.041805    1.173916   -0.256816
      4          6           0        1.286450    0.541332   -0.181046
      5          6           0       -3.632364    0.360929   -0.172103
      6         16           0       -3.731682   -1.381240    0.072853
      7          6           0       -5.492381   -1.316150    0.079346
      8          6           0       -5.937414    0.002523   -0.102460
      9          7           0       -4.878726    0.909623   -0.261587
     10          6           0       -6.386349   -2.371189    0.240698
     11          6           0       -7.751214   -2.085245    0.223608
     12          6           0       -8.201765   -0.770406    0.051330
     13          6           0       -7.306986    0.285734   -0.111525
     14          6           0       -5.109277    2.349928   -0.473641
     15          6           0       -5.164583    3.142776    0.833251
     16          6           0        2.499506    1.229230   -0.203687
     17          6           0        3.822110    0.764058   -0.127091
     18         16           0        5.094002    1.944187    0.172030
     19          6           0        6.326179    0.693711    0.140374
     20          6           0        5.740783   -0.561555   -0.088266
     21          7           0        4.346445   -0.488644   -0.256376
     22          6           0        7.702092    0.835001    0.309547
     23          6           0        8.493059   -0.310930    0.250826
     24          6           0        7.913914   -1.567173    0.028296
     25          6           0        6.538273   -1.709565   -0.142327
     26          6           0        3.573454   -1.678630   -0.651238
     27          6           0        3.111260   -2.522112    0.538719
     28          1           0       -2.480232    2.144966   -0.359543
     29          1           0       -1.101764   -0.604050   -0.075964
     30          1           0        0.014895    2.256753   -0.370616
     31          1           0        1.271155   -0.537990   -0.061902
     32          1           0       -6.030956   -3.387372    0.377927
     33          1           0       -8.467850   -2.890478    0.348789
     34          1           0       -9.267265   -0.563876    0.046694
     35          1           0       -7.675558    1.298131   -0.232690
     36          1           0       -4.320988    2.718242   -1.133807
     37          1           0       -6.043470    2.442277   -1.031819
     38          1           0       -4.221825    3.066705    1.383681
     39          1           0       -5.350379    4.199206    0.614515
     40          1           0       -5.968923    2.780771    1.480961
     41          1           0        2.426074    2.314290   -0.229676
     42          1           0        8.144449    1.810753    0.482525
     43          1           0        9.567045   -0.226720    0.381606
     44          1           0        8.544040   -2.450028   -0.009720
     45          1           0        6.108776   -2.691785   -0.303762
     46          1           0        2.735494   -1.334144   -1.259472
     47          1           0        4.216087   -2.264286   -1.313807
     48          1           0        3.963720   -2.884064    1.121248
     49          1           0        2.464779   -1.951800    1.212975
     50          1           0        2.552692   -3.391803    0.177306
 ---------------------------------------------------------------------

 SCF Done:  E(RB3LYP) =  -1796.09616839     A.U. after   13 cycles

 Excitation energies and oscillator strengths:

 Excited State   1:      Singlet-A      2.2907 eV  541.26 nm  f=2.2748  <S**2>=0.000
     103 ->104         0.70876
     103 <-104        -0.10204
 This state for optimization and/or second-order correction.
 Total Energy, E(TD-HF/TD-DFT) =  -1796.01198821
 Copying the excited state density for this state as the 1-particle RhoCI density.

 Excited State   2:      Singlet-A      3.5817 eV  346.16 nm  f=0.0151  <S**2>=0.000
     101 ->104        -0.12221
     102 ->104         0.64386
     103 ->105        -0.25632

 Excited State   3:      Singlet-A      3.7291 eV  332.48 nm  f=0.0228  <S**2>=0.000
     101 ->104         0.67081
     103 ->105        -0.10355
     103 ->107         0.13276

 Excited State   4:      Singlet-A      3.7617 eV  329.59 nm  f=0.0170  <S**2>=0.000
     100 ->104         0.68082
     103 ->106        -0.14839

 Excited State   5:      Singlet-A      4.0667 eV  304.87 nm  f=0.0780  <S**2>=0.000
     102 ->104         0.22944
     103 ->105         0.58173
     103 ->106        -0.12585
     103 ->107        -0.13516
     103 ->108        -0.19838

 Excited State   6:      Singlet-A      4.0810 eV  303.81 nm  f=0.0118  <S**2>=0.000
     103 ->106        -0.40350
     103 ->107        -0.15148
     103 ->108         0.53207

 Excited State   7:      Singlet-A      4.1082 eV  301.79 nm  f=0.0453  <S**2>=0.000
     101 ->104        -0.14619
     103 ->106        -0.39413
     103 ->107         0.52979
     103 ->108        -0.15552

 Excited State   8:      Singlet-A      4.1513 eV  298.67 nm  f=0.0063  <S**2>=0.000
     100 ->104         0.11626
     102 ->104         0.12039
     103 ->105         0.24482
     103 ->106         0.35162
     103 ->107         0.37672
     103 ->108         0.35674

 Excited State   9:      Singlet-A      4.1877 eV  296.07 nm  f=0.0010  <S**2>=0.000
     103 ->110         0.69004

 Excited State  10:      Singlet-A      4.3321 eV  286.20 nm  f=0.0120  <S**2>=0.000
      99 ->104         0.62809
     103 ->109         0.29650

 Excited State  11:      Singlet-A      4.5235 eV  274.09 nm  f=0.0207  <S**2>=0.000
      99 ->104        -0.28191
     103 ->109         0.61739

 Excited State  12:      Singlet-A      4.7829 eV  259.23 nm  f=0.0087  <S**2>=0.000
      98 ->104         0.20191
     103 ->111         0.66137

 Excited State  13:      Singlet-A      5.1539 eV  240.56 nm  f=0.0039  <S**2>=0.000
      98 ->104         0.64680
     103 ->111        -0.16040

 Excited State  14:      Singlet-A      5.2454 eV  236.37 nm  f=0.0325  <S**2>=0.000
     100 ->106         0.16263
     100 ->107         0.10116
     100 ->109        -0.10219
     101 ->107        -0.15740
     102 ->105         0.57387
     102 ->107        -0.11853

 Excited State  15:      Singlet-A      5.4002 eV  229.59 nm  f=0.0039  <S**2>=0.000
      98 ->104        -0.11684
      99 ->105        -0.13327
      99 ->107         0.12508
     100 ->105        -0.18928
     100 ->106        -0.14110
     100 ->109         0.11016
     101 ->105        -0.26479
     101 ->107        -0.15265
     101 ->109        -0.13036
     102 ->106         0.41726
     102 ->107        -0.21154
     102 ->109         0.10925

 Excited State  16:      Singlet-A      5.4785 eV  226.31 nm  f=0.0218  <S**2>=0.000
      96 ->104         0.18511
      97 ->104         0.47509
     100 ->105        -0.18566
     101 ->105         0.17843
     102 ->106         0.15471
     102 ->107         0.31486

 Excited State  17:      Singlet-A      5.4993 eV  225.45 nm  f=0.0177  <S**2>=0.000
      96 ->104         0.55170
      97 ->104        -0.33115
     102 ->106         0.12709
     102 ->109        -0.10335

 Excited State  18:      Singlet-A      5.5433 eV  223.66 nm  f=0.0195  <S**2>=0.000
      96 ->104         0.30034
      97 ->104         0.33764
     100 ->105         0.22256
     101 ->105        -0.20560
     102 ->105        -0.25404
     102 ->106        -0.11506
     102 ->107        -0.26826

 Excited State  19:      Singlet-A      5.5649 eV  222.80 nm  f=0.0012  <S**2>=0.000
      96 ->104         0.11850
     100 ->108         0.56329
     100 ->109        -0.10102
     102 ->108         0.34902

 Excited State  20:      Singlet-A      5.6269 eV  220.34 nm  f=0.0008  <S**2>=0.000
     101 ->110         0.55739
     102 ->110        -0.37690

 Excited State  21:      Singlet-A      5.6923 eV  217.81 nm  f=0.0017  <S**2>=0.000
      99 ->108         0.16141
     100 ->108        -0.37084
     102 ->108         0.54630

 Excited State  22:      Singlet-A      5.7028 eV  217.41 nm  f=0.0151  <S**2>=0.000
     100 ->105         0.33247
     100 ->106        -0.11963
     101 ->105         0.44538
     101 ->107        -0.12940
     101 ->111         0.11598
     102 ->106         0.11769
     102 ->107        -0.12412
     102 ->109         0.20477
     102 ->110         0.13042

 Excited State  23:      Singlet-A      5.7537 eV  215.49 nm  f=0.0883  <S**2>=0.000
     100 ->105         0.42551
     100 ->106        -0.12081
     101 ->105        -0.27234
     102 ->106         0.10264
     102 ->107         0.31714
     102 ->110        -0.14811
     102 ->111         0.14124

 Excited State  24:      Singlet-A      5.7764 eV  214.64 nm  f=0.0081  <S**2>=0.000
      99 ->110        -0.14646
     101 ->105        -0.12289
     101 ->110         0.40893
     102 ->110         0.51823

 Excited State  25:      Singlet-A      5.8600 eV  211.58 nm  f=0.0665  <S**2>=0.000
      96 ->104        -0.14146
      99 ->105         0.16068
     100 ->105         0.13854
     100 ->106         0.27819
     100 ->107         0.12431
     101 ->107         0.18433
     102 ->106         0.42179
     102 ->109        -0.20519
     103 ->112         0.19387

 Excited State  26:      Singlet-A      5.8957 eV  210.29 nm  f=0.1400  <S**2>=0.000
      95 ->104        -0.17747
     101 ->106         0.14335
     101 ->107        -0.29248
     102 ->107         0.23553
     103 ->112         0.47263

 Excited State  27:      Singlet-A      5.9750 eV  207.50 nm  f=0.1345  <S**2>=0.000
      95 ->104        -0.30076
     100 ->106        -0.24686
     100 ->107        -0.10718
     101 ->106        -0.12866
     101 ->107         0.26700
     102 ->105         0.17519
     102 ->107        -0.15249
     102 ->111         0.17689
     103 ->112         0.30525

 Excited State  28:      Singlet-A      6.0845 eV  203.77 nm  f=0.0001  <S**2>=0.000
      94 ->104        -0.14752
      95 ->104         0.11111
     103 ->113         0.66385

 Excited State  29:      Singlet-A      6.0916 eV  203.53 nm  f=0.0020  <S**2>=0.000
     101 ->106         0.64103
     101 ->107         0.27050

 Excited State  30:      Singlet-A      6.1166 eV  202.70 nm  f=0.0122  <S**2>=0.000
      90 ->104        -0.27091
      91 ->104        -0.17517
      92 ->104        -0.20900
      94 ->104         0.46792
      95 ->104         0.21580
     103 ->112         0.12526
     103 ->113         0.11237

 Excited State  31:      Singlet-A      6.1242 eV  202.45 nm  f=0.0403  <S**2>=0.000
      90 ->104        -0.11337
      94 ->104         0.19418
      95 ->104        -0.27833
      99 ->105         0.28648
     100 ->107         0.18909
     102 ->109         0.38838
     102 ->111         0.13384
     103 ->112        -0.10868

 Excited State  32:      Singlet-A      6.1366 eV  202.04 nm  f=0.0068  <S**2>=0.000
      95 ->104         0.15649
     100 ->106        -0.36859
     100 ->107         0.54159

 Excited State  33:      Singlet-A      6.1555 eV  201.42 nm  f=0.0236  <S**2>=0.000
      94 ->104        -0.10693
      95 ->104         0.33700
      99 ->105         0.25553
     100 ->107        -0.16488
     101 ->107         0.10836
     102 ->109         0.36007
     102 ->111        -0.12538
     103 ->112         0.19915
     103 ->113        -0.11971

 Excited State  34:      Singlet-A      6.2038 eV  199.85 nm  f=0.0214  <S**2>=0.000
      99 ->105         0.15922
      99 ->107        -0.26157
     100 ->106        -0.17296
     100 ->107        -0.18203
     100 ->109        -0.25814
     100 ->111        -0.12856
     101 ->107        -0.23382
     101 ->109         0.28230
     101 ->111        -0.18683
     102 ->106         0.14437
     102 ->107        -0.10272
     102 ->109        -0.11402

 Excited State  35:      Singlet-A      6.2184 eV  199.38 nm  f=0.0121  <S**2>=0.000
      99 ->106         0.32021
     100 ->106         0.12358
     100 ->107         0.19001
     100 ->109         0.31898
     100 ->111         0.15912
     101 ->107        -0.15478
     101 ->109         0.26594
     101 ->111        -0.16223
     102 ->107        -0.17812

 Excited State  36:      Singlet-A      6.3307 eV  195.84 nm  f=0.0560  <S**2>=0.000
      91 ->104         0.19087
      93 ->104         0.52839
     102 ->111        -0.30037
     103 ->114         0.14017

 Excited State  37:      Singlet-A      6.3522 eV  195.18 nm  f=0.0001  <S**2>=0.000
     101 ->108         0.68908
     101 ->109        -0.10992

 Excited State  38:      Singlet-A      6.3623 eV  194.87 nm  f=0.0017  <S**2>=0.000
      88 ->104        -0.12217
      89 ->104        -0.14358
      91 ->104         0.38659
      92 ->104         0.27763
      93 ->104        -0.28491
      94 ->104         0.32759

 Excited State  39:      Singlet-A      6.3756 eV  194.47 nm  f=0.0581  <S**2>=0.000
      93 ->104        -0.30520
     102 ->111        -0.25667
     103 ->114         0.51490

 Excited State  40:      Singlet-A      6.4087 eV  193.46 nm  f=0.0392  <S**2>=0.000
      90 ->104         0.11874
      91 ->104        -0.12998
      92 ->104         0.31903
      93 ->104         0.12794
      94 ->104         0.16028
      95 ->104         0.18698
      98 ->105         0.11540
     102 ->111         0.35649
     103 ->112         0.10249
     103 ->114         0.30804

 Excited State  41:      Singlet-A      6.4464 eV  192.33 nm  f=0.0381  <S**2>=0.000
      91 ->104         0.23536
      92 ->104        -0.22930
      95 ->104         0.11044
      99 ->105         0.35029
      99 ->107         0.18925
     101 ->107        -0.11289
     101 ->109        -0.17791
     102 ->109        -0.17485
     102 ->111         0.20181

 Excited State  42:      Singlet-A      6.4559 eV  192.05 nm  f=0.0144  <S**2>=0.000
      89 ->104         0.11973
      91 ->104        -0.31389
      92 ->104         0.32592
      95 ->104        -0.12332
      99 ->105         0.25644
      99 ->107         0.19843
     102 ->109        -0.13869
     102 ->111        -0.13861
     103 ->114        -0.14640

 Excited State  43:      Singlet-A      6.4838 eV  191.22 nm  f=0.0000  <S**2>=0.000
     100 ->110         0.70573

 Excited State  44:      Singlet-A      6.5252 eV  190.01 nm  f=0.0026  <S**2>=0.000
      98 ->108         0.18029
      99 ->108         0.60772
     102 ->108        -0.17558
     103 ->114         0.17871

 Excited State  45:      Singlet-A      6.5301 eV  189.87 nm  f=0.0038  <S**2>=0.000
      90 ->104         0.57282
      91 ->104        -0.10708
      92 ->104        -0.27930
      94 ->104         0.20197

 Excited State  46:      Singlet-A      6.5557 eV  189.12 nm  f=0.0355  <S**2>=0.000
      99 ->107         0.25064
     101 ->109         0.46216
     101 ->111         0.42843

 Excited State  47:      Singlet-A      6.6152 eV  187.42 nm  f=0.1260  <S**2>=0.000
      88 ->104         0.13775
      89 ->104         0.22244
      91 ->104         0.10925
      99 ->106        -0.33282
      99 ->107        -0.15569
     100 ->109         0.39368
     100 ->111        -0.25414

 Excited State  48:      Singlet-A      6.6258 eV  187.12 nm  f=0.0230  <S**2>=0.000
      85 ->104         0.19689
      86 ->104        -0.15636
      88 ->104         0.27358
      89 ->104         0.38499
      91 ->104         0.24775
      99 ->106         0.12970
     100 ->109        -0.21677
     100 ->111         0.21536

 Excited State  49:      Singlet-A      6.6554 eV  186.29 nm  f=0.0030  <S**2>=0.000
      98 ->110        -0.19432
      99 ->110         0.64126
     102 ->110         0.17208

 Excited State  50:      Singlet-A      6.6956 eV  185.17 nm  f=0.1097  <S**2>=0.000
      88 ->104        -0.16125
      99 ->106         0.11638
      99 ->107        -0.20212
     101 ->111         0.16824
     103 ->115         0.45181
     103 ->116         0.36623

 Excited State  51:      Singlet-A      6.7124 eV  184.71 nm  f=0.2781  <S**2>=0.000
      88 ->104         0.16364
      99 ->106         0.31917
      99 ->107        -0.20582
     100 ->111        -0.30047
     101 ->111         0.30907
     103 ->115        -0.27390

 Excited State  52:      Singlet-A      6.7250 eV  184.36 nm  f=0.0611  <S**2>=0.000
      99 ->105         0.15087
      99 ->106        -0.13546
      99 ->107        -0.33161
     100 ->111         0.42291
     101 ->111         0.24801
     103 ->116        -0.18053

 Excited State  53:      Singlet-A      6.7511 eV  183.65 nm  f=0.0275  <S**2>=0.000
      84 ->104        -0.11104
      86 ->104         0.18460
      87 ->104         0.10890
      88 ->104         0.33397
      89 ->104        -0.15400
      98 ->105        -0.11940
      99 ->106        -0.12175
     100 ->111         0.15820
     103 ->115        -0.15430
     103 ->116         0.43976

 Excited State  54:      Singlet-A      6.7700 eV  183.14 nm  f=0.0164  <S**2>=0.000
      84 ->104        -0.17901
      86 ->104         0.30637
      87 ->104         0.18403
      88 ->104         0.27981
     103 ->115         0.36727
     103 ->116        -0.28433

 Excited State  55:      Singlet-A      6.8687 eV  180.50 nm  f=0.0007  <S**2>=0.000
      85 ->104        -0.17122
      86 ->104         0.16713
      87 ->104         0.45744
      88 ->104        -0.17960
      89 ->104         0.34101
      90 ->104        -0.13887
     102 ->112         0.10549
     103 ->115        -0.10865

 Excited State  56:      Singlet-A      6.9137 eV  179.33 nm  f=0.0491  <S**2>=0.000
      86 ->104        -0.20567
      87 ->104         0.25791
      96 ->106         0.10254
      98 ->105         0.18616
      99 ->109         0.53053

 Excited State  57:      Singlet-A      6.9201 eV  179.17 nm  f=0.0153  <S**2>=0.000
      86 ->104         0.38327
      87 ->104        -0.35053
      88 ->104        -0.10653
      89 ->104         0.22633
      99 ->109         0.31270

 Excited State  58:      Singlet-A      6.9959 eV  177.23 nm  f=0.0044  <S**2>=0.000
      84 ->104        -0.16255
      85 ->104         0.57395
      86 ->104         0.11066
      88 ->104        -0.24157

 Excited State  59:      Singlet-A      7.0338 eV  176.27 nm  f=0.0893  <S**2>=0.000
      84 ->104         0.14529
      96 ->106        -0.12874
      98 ->105         0.56703
      99 ->109        -0.11515
     103 ->112        -0.12306
     103 ->117        -0.15569

 Excited State  60:      Singlet-A      7.0694 eV  175.38 nm  f=0.0107  <S**2>=0.000
      98 ->105         0.13340
     103 ->116         0.10679
     103 ->117         0.65365

 Excited State  61:      Singlet-A      7.1089 eV  174.41 nm  f=0.0040  <S**2>=0.000
      84 ->104         0.46802
      85 ->104         0.13545
      86 ->104         0.24030
      96 ->106         0.10108
      97 ->107         0.11495
      99 ->111         0.32385
     103 ->117         0.11355

 Excited State  62:      Singlet-A      7.1308 eV  173.87 nm  f=0.0076  <S**2>=0.000
      84 ->104        -0.32605
      96 ->106         0.12791
      97 ->107         0.18001
      98 ->106         0.14268
      99 ->111         0.47780

 Excited State  63:      Singlet-A      7.2227 eV  171.66 nm  f=0.0049  <S**2>=0.000
      96 ->108         0.58713
      96 ->109        -0.12700
      97 ->108         0.13424
      98 ->108        -0.25702

 Excited State  64:      Singlet-A      7.2364 eV  171.34 nm  f=0.0148  <S**2>=0.000
      96 ->105         0.12786
      97 ->105         0.38610
      98 ->106         0.41939
      98 ->107        -0.26528
      99 ->111        -0.15136

 Excited State  65:      Singlet-A      7.2413 eV  171.22 nm  f=0.0294  <S**2>=0.000
      96 ->105         0.35701
      96 ->108        -0.13470
      97 ->105        -0.14278
      98 ->106         0.29283
      98 ->107         0.43464

 Excited State  66:      Singlet-A      7.2629 eV  170.71 nm  f=0.0001  <S**2>=0.000
      80 ->104         0.14418
      81 ->104         0.23214
      83 ->104         0.58463
      85 ->104        -0.14973

 Excited State  67:      Singlet-A      7.2934 eV  169.99 nm  f=0.0021  <S**2>=0.000
      97 ->110         0.55941
      98 ->107         0.14435
      98 ->110         0.31577
      99 ->110         0.10559

 Excited State  68:      Singlet-A      7.3608 eV  168.44 nm  f=0.0365  <S**2>=0.000
      96 ->105         0.47725
      96 ->106        -0.13643
      97 ->105         0.21661
      98 ->106        -0.35136
      99 ->111         0.11852

 Excited State  69:      Singlet-A      7.3732 eV  168.15 nm  f=0.0542  <S**2>=0.000
      96 ->105        -0.21359
      97 ->105         0.45190
      97 ->106         0.10343
      97 ->107        -0.10518
      98 ->107         0.37910

 Excited State  70:      Singlet-A      7.3759 eV  168.09 nm  f=0.0096  <S**2>=0.000
      78 ->104         0.16270
      80 ->104        -0.16116
      81 ->104        -0.10025
      82 ->104         0.56944
      83 ->104         0.13429
      84 ->104        -0.19932
      96 ->106         0.11937

 The electronic state is 1-A.
 Alpha  occ. eigenvalues --  -88.93177 -88.92998 -14.42146 -14.41794 -10.29763
 Alpha  occ. eigenvalues --  -10.29375 -10.25561 -10.25431 -10.24245 -10.24147
 Alpha  occ. eigenvalues --  -10.23710 -10.23543 -10.21778 -10.21777 -10.20968
 Alpha  occ. eigenvalues --  -10.20889 -10.20719 -10.20603 -10.20470 -10.20197
 Alpha  occ. eigenvalues --  -10.20096 -10.20071 -10.20021 -10.19909 -10.19284
 Alpha  occ. eigenvalues --  -10.18350 -10.18212  -7.99311  -7.99126  -5.95757
 Alpha  occ. eigenvalues --   -5.95580  -5.95390  -5.95213  -5.94909  -5.94710
 Alpha  occ. eigenvalues --   -1.01820  -1.01656  -0.87640  -0.87522  -0.85080
 Alpha  occ. eigenvalues --   -0.84671  -0.82656  -0.80230  -0.77848  -0.77263
 Alpha  occ. eigenvalues --   -0.76838  -0.75168  -0.74691  -0.73771  -0.70501
 Alpha  occ. eigenvalues --   -0.66389  -0.65857  -0.65673  -0.63337  -0.62439
 Alpha  occ. eigenvalues --   -0.61211  -0.60314  -0.58012  -0.56900  -0.56211
 Alpha  occ. eigenvalues --   -0.52685  -0.52560  -0.52212  -0.51176  -0.49479
 Alpha  occ. eigenvalues --   -0.48804  -0.47166  -0.47134  -0.46494  -0.46292
 Alpha  occ. eigenvalues --   -0.45816  -0.45646  -0.44952  -0.43831  -0.43665
 Alpha  occ. eigenvalues --   -0.43372  -0.41968  -0.40877  -0.40372  -0.40308
 Alpha  occ. eigenvalues --   -0.39722  -0.39291  -0.38754  -0.38016  -0.37523
 Alpha  occ. eigenvalues --   -0.37167  -0.37154  -0.36794  -0.36679  -0.36135
 Alpha  occ. eigenvalues --   -0.35655  -0.35433  -0.35269  -0.35091  -0.33825
 Alpha  occ. eigenvalues --   -0.31795  -0.31704  -0.30000  -0.27067  -0.25124
 Alpha  occ. eigenvalues --   -0.25009  -0.24032  -0.18479
 Alpha virt. eigenvalues --   -0.09635  -0.02762  -0.01804  -0.01725  -0.00737
 Alpha virt. eigenvalues --   -0.00395  -0.00273   0.00672   0.05172   0.06651
 Alpha virt. eigenvalues --    0.07364   0.08470   0.08933   0.09737   0.11029

 Mulliken charges:
               1
     1  C   -0.151065
     2  C   -0.082562
     3  C   -0.132034
     4  C   -0.048537
     5  C    0.120311
     6  S    0.280983
     7  C   -0.190261
     8  C    0.360505
     9  N   -0.524775
    10  C   -0.132659
    11  C   -0.093544
    12  C   -0.126213
    13  C   -0.102826
    14  C   -0.080895
    15  C   -0.330701
    16  C   -0.163024
    17  C    0.125446
    18  S    0.284213
    19  C   -0.188645
    20  C    0.357242
    21  N   -0.518884
    22  C   -0.131363
    23  C   -0.091336
    24  C   -0.126311
    25  C   -0.099852
    26  C   -0.088931
    27  C   -0.330461
    28  H    0.145808
    29  H    0.131062
    30  H    0.114805
    31  H    0.136387
    32  H    0.143441
    33  H    0.127968
    34  H    0.130470
    35  H    0.145745
    36  H    0.158986
    37  H    0.158718
    38  H    0.133540
    39  H    0.135365
    40  H    0.133456
    41  H    0.134551
    42  H    0.144549
    43  H    0.129234
    44  H    0.131672
    45  H    0.147355
    46  H    0.156103
    47  H    0.159852
    48  H    0.133827
    49  H    0.136392
    50  H    0.136893
 Sum of Mulliken charges =   1.00000

 Dipole moment (field-independent basis, Debye):
    X=             -1.0450    Y=             -0.1033    Z=             -1.0367  Tot=              1.4756
 Quadrupole moment (field-independent basis, Debye-Ang):
   XX=             -9.7300   YY=           -135.3875   ZZ=           -176.4818
   XY=            -21.1201   XZ=              1.0688   YZ=             -0.8832

 Normal termination of Gaussian 16 at Wed Nov  1 15:39:37 2023.
