 Gaussian 16, Revision C.02,
 Gaussian 16:  ES64L-G16RevC.02  7-Dec-2021

 ------------------------------------------------------------
 # td=(nstates=150) b3lyp/6-311+g* scrf(smd, solvent=ethanol)
 ------------------------------------------------------------

 ---
 A-1
 ---
 Symbolic Z-matrix:
 Charge =  1 Multiplicity = 1

                         Standard orientation:
 ---------------------------------------------------------------------
 Center     Atomic      Atomic             Coordinates (Angstroms)
 Number     Number       Type             X           Y           Z
 ---------------------------------------------------------------------
      1          6           0       -1.259214    0.216698   -0.039367
      2          6           0        0.000003    0.828935   -0.000122
      3          6           0        1.259209    0.216684    0.039249
      4          7           0        2.433464    0.904848    0.145998
      5         16           0       -1.557561   -1.512152    0.053882
      6          6           0       -3.297665   -1.258824   -0.027283
      7          6           0       -3.589904    0.108866   -0.118299
      8          7           0       -2.433474    0.904863   -0.146106
      9         16           0        1.557549   -1.512171   -0.053923
     10          6           0        3.297657   -1.258850    0.027304
     11          6           0        3.589900    0.108842    0.118251
     12          6           0       -4.301571   -2.224422   -0.003624
     13          6           0       -5.624645   -1.792125   -0.066975
     14          6           0       -5.925643   -0.425687   -0.149009
     15          6           0       -4.920394    0.538274   -0.174272
     16          6           0        4.301563   -2.224450    0.003718
     17          6           0        5.624635   -1.792149    0.067066
     18          6           0        5.925635   -0.425707    0.149021
     19          6           0        4.920384    0.538258    0.174213
     20          6           0       -2.510348    2.373529   -0.257226
     21          6           0       -2.566433    3.073786    1.101522
     22          6           0        2.510339    2.373497    0.257299
     23          6           0        2.566508    3.073929   -1.101357
     24          1           0        0.000014    1.909040   -0.000214
     25          1           0       -4.060576   -3.280313    0.063971
     26          1           0       -6.427238   -2.522132   -0.049094
     27          1           0       -6.962056   -0.106514   -0.191342
     28          1           0       -5.176748    1.590213   -0.228130
     29          1           0        4.060566   -3.280345   -0.063815
     30          1           0        6.427230   -2.522156    0.049231
     31          1           0        6.962048   -0.106532    0.191339
     32          1           0        5.176733    1.590201    0.228019
     33          1           0       -1.657488    2.708489   -0.852128
     34          1           0       -3.398115    2.597174   -0.852215
     35          1           0       -3.441185    2.752064    1.674572
     36          1           0       -1.673838    2.863356    1.699082
     37          1           0       -2.634230    4.156364    0.954302
     38          1           0        1.657436    2.708379    0.852183
     39          1           0        3.398074    2.597059    0.852370
     40          1           0        3.441334    2.752344   -1.674368
     41          1           0        1.673988    2.863510   -1.699033
     42          1           0        2.634214    4.156493   -0.953990
 ---------------------------------------------------------------------

 SCF Done:  E(RB3LYP) =  -1641.47414668     A.U. after   15 cycles

 Excitation energies and oscillator strengths:

 Excited State   1:      Singlet-A      3.1601 eV  392.34 nm  f=1.2235  <S**2>=0.000
      89 -> 90         0.70486
 This state for optimization and/or second-order correction.
 Total Energy, E(TD-HF/TD-DFT) =  -1641.35801566
 Copying the excited state density for this state as the 1-particle RhoCI density.

 Excited State   2:      Singlet-A      3.9217 eV  316.15 nm  f=0.0007  <S**2>=0.000
      89 -> 91         0.70019

 Excited State   3:      Singlet-A      4.0871 eV  303.35 nm  f=0.0232  <S**2>=0.000
      88 -> 90         0.62693
      89 -> 92         0.30087

 Excited State   4:      Singlet-A      4.2096 eV  294.53 nm  f=0.0075  <S**2>=0.000
      87 -> 90         0.64908
      89 -> 93         0.25691

 Excited State   5:      Singlet-A      4.4060 eV  281.40 nm  f=0.0396  <S**2>=0.000
      88 -> 90        -0.28978
      89 -> 92         0.62312

 Excited State   6:      Singlet-A      4.5250 eV  274.00 nm  f=0.0004  <S**2>=0.000
      86 -> 90         0.66925
      89 -> 94        -0.17248

 Excited State   7:      Singlet-A      4.5260 eV  273.94 nm  f=0.0363  <S**2>=0.000
      87 -> 90        -0.25362
      89 -> 93         0.63662

 Excited State   8:      Singlet-A      4.7810 eV  259.32 nm  f=0.0921  <S**2>=0.000
      86 -> 90         0.15551
      87 -> 92        -0.11505
      89 -> 94         0.64851

 Excited State   9:      Singlet-A      4.9345 eV  251.26 nm  f=0.0014  <S**2>=0.000
      89 -> 95         0.67157

 Excited State  10:      Singlet-A      5.0120 eV  247.37 nm  f=0.0000  <S**2>=0.000
      86 -> 91        -0.18104
      88 -> 91         0.44581
      89 -> 97         0.46814
      89 -> 98        -0.14846

 Excited State  11:      Singlet-A      5.0923 eV  243.47 nm  f=0.0053  <S**2>=0.000
      89 -> 96         0.68730

 Excited State  12:      Singlet-A      5.1206 eV  242.13 nm  f=0.0000  <S**2>=0.000
      88 -> 91         0.52100
      89 -> 97        -0.43871
      89 -> 98         0.11579

 Excited State  13:      Singlet-A      5.2406 eV  236.58 nm  f=0.0096  <S**2>=0.000
      87 -> 91         0.68248
      88 -> 97        -0.12667

 Excited State  14:      Singlet-A      5.3233 eV  232.91 nm  f=0.2257  <S**2>=0.000
      85 -> 90         0.55121
      86 -> 92         0.14668
      87 -> 93         0.16180
      87 -> 95         0.14183
      88 -> 92         0.26880
      88 -> 94         0.20093

 Excited State  15:      Singlet-A      5.5027 eV  225.32 nm  f=0.0005  <S**2>=0.000
      86 -> 91         0.64086
      89 -> 97         0.22807
      89 -> 98         0.13857

 Excited State  16:      Singlet-A      5.5385 eV  223.86 nm  f=0.0006  <S**2>=0.000
      86 -> 91        -0.19527
      89 -> 97         0.14290
      89 -> 98         0.63959

 Excited State  17:      Singlet-A      5.5678 eV  222.68 nm  f=0.0586  <S**2>=0.000
      85 -> 90         0.21269
      86 -> 92        -0.13827
      88 -> 92        -0.20796
      88 -> 94        -0.10103
      89 -> 99         0.58462

 Excited State  18:      Singlet-A      5.5987 eV  221.45 nm  f=0.0053  <S**2>=0.000
      89 ->100         0.68122

 Excited State  19:      Singlet-A      5.6597 eV  219.06 nm  f=0.0736  <S**2>=0.000
      86 -> 92        -0.32955
      87 -> 95        -0.15127
      88 -> 92         0.51629
      88 -> 94        -0.24625

 Excited State  20:      Singlet-A      5.6657 eV  218.83 nm  f=0.1923  <S**2>=0.000
      84 -> 90         0.16751
      85 -> 92        -0.10412
      86 -> 90         0.10325
      86 -> 93         0.33022
      86 -> 95        -0.13639
      87 -> 92         0.35079
      87 -> 94         0.21397
      88 -> 93         0.24564
      88 -> 95         0.16486
      89 -> 94         0.16044

 Excited State  21:      Singlet-A      5.6694 eV  218.69 nm  f=0.0246  <S**2>=0.000
      85 -> 90        -0.32586
      86 -> 92         0.31095
      86 -> 94        -0.16466
      88 -> 92         0.22224
      88 -> 94         0.20786
      89 -> 95         0.10572
      89 -> 99         0.35990

 Excited State  22:      Singlet-A      5.7462 eV  215.77 nm  f=0.0620  <S**2>=0.000
      84 -> 90         0.33937
      86 -> 93        -0.28095
      87 -> 94        -0.24618
      88 -> 93         0.38782
      88 -> 95        -0.22664
      89 ->100         0.10161

 Excited State  23:      Singlet-A      5.7859 eV  214.29 nm  f=0.0034  <S**2>=0.000
      89 ->101         0.65453
      89 ->103         0.20377

 Excited State  24:      Singlet-A      5.8281 eV  212.74 nm  f=0.0027  <S**2>=0.000
      86 -> 93        -0.14137
      87 -> 92         0.51375
      88 -> 93        -0.43137

 Excited State  25:      Singlet-A      5.8959 eV  210.29 nm  f=0.0014  <S**2>=0.000
      83 -> 90        -0.28375
      86 -> 94        -0.17955
      87 -> 93         0.56530
      88 -> 92        -0.17703
      88 -> 94        -0.10372

 Excited State  26:      Singlet-A      5.9413 eV  208.68 nm  f=0.0007  <S**2>=0.000
      84 -> 90         0.57360
      87 -> 92        -0.25355
      87 -> 94         0.10091
      88 -> 93        -0.25378

 Excited State  27:      Singlet-A      5.9491 eV  208.41 nm  f=0.0080  <S**2>=0.000
      89 ->101        -0.21389
      89 ->103         0.63736
      89 ->106         0.13534

 Excited State  28:      Singlet-A      6.0293 eV  205.64 nm  f=0.1873  <S**2>=0.000
      83 -> 90         0.59779
      86 -> 92        -0.15417
      87 -> 93         0.30325

 Excited State  29:      Singlet-A      6.0305 eV  205.60 nm  f=0.0005  <S**2>=0.000
      89 -> 98        -0.11906
      89 ->102         0.65046
      89 ->104         0.21251

 Excited State  30:      Singlet-A      6.1082 eV  202.98 nm  f=0.3848  <S**2>=0.000
      83 -> 90        -0.14022
      86 -> 92        -0.36483
      87 -> 95        -0.14823
      88 -> 94         0.54885

 Excited State  31:      Singlet-A      6.1083 eV  202.98 nm  f=0.0009  <S**2>=0.000
      89 ->102        -0.22467
      89 ->104         0.64344

 Excited State  32:      Singlet-A      6.1892 eV  200.32 nm  f=0.0054  <S**2>=0.000
      87 -> 94        -0.43331
      88 -> 95         0.51269
      88 -> 96        -0.17028

 Excited State  33:      Singlet-A      6.2500 eV  198.38 nm  f=0.0006  <S**2>=0.000
      86 -> 93         0.12424
      87 -> 94        -0.23401
      87 -> 97         0.20134
      88 -> 96         0.58832

 Excited State  34:      Singlet-A      6.2694 eV  197.76 nm  f=0.0930  <S**2>=0.000
      86 -> 92        -0.18702
      86 -> 94        -0.18773
      87 -> 95         0.42210
      87 -> 96        -0.23773
      88 -> 97        -0.37913
      89 ->107        -0.10138

 Excited State  35:      Singlet-A      6.2848 eV  197.28 nm  f=0.0161  <S**2>=0.000
      89 ->105         0.68246

 Excited State  36:      Singlet-A      6.3057 eV  196.62 nm  f=0.0491  <S**2>=0.000
      86 -> 92        -0.16660
      86 -> 94        -0.22864
      87 -> 95         0.28963
      87 -> 96         0.26995
      88 -> 97         0.42642
      89 ->107        -0.18967

 Excited State  37:      Singlet-A      6.3267 eV  195.97 nm  f=0.0011  <S**2>=0.000
      85 -> 92         0.13133
      86 -> 93         0.46958
      87 -> 94        -0.27742
      88 -> 95        -0.30446
      88 -> 96        -0.17648
      89 ->105        -0.12483

 Excited State  38:      Singlet-A      6.3316 eV  195.82 nm  f=0.0026  <S**2>=0.000
      85 -> 91        -0.23616
      89 ->103        -0.14963
      89 ->106         0.60543
      89 ->107        -0.15299

 Excited State  39:      Singlet-A      6.3660 eV  194.76 nm  f=0.0412  <S**2>=0.000
      86 -> 94        -0.10672
      87 -> 95         0.14102
      89 ->106         0.17494
      89 ->107         0.63807

 Excited State  40:      Singlet-A      6.3939 eV  193.91 nm  f=0.0070  <S**2>=0.000
      85 -> 91         0.55365
      86 -> 97         0.28571
      89 ->106         0.24943

 Excited State  41:      Singlet-A      6.4109 eV  193.40 nm  f=0.0086  <S**2>=0.000
      82 -> 90         0.19025
      85 -> 91        -0.13733
      86 -> 94        -0.19241
      87 -> 96         0.42458
      88 -> 97        -0.29606
      88 -> 98         0.24792
      88 ->100         0.14990

 Excited State  42:      Singlet-A      6.4585 eV  191.97 nm  f=0.2776  <S**2>=0.000
      82 -> 90         0.18875
      84 -> 92        -0.11179
      85 -> 90        -0.10875
      86 -> 94         0.48603
      87 -> 93         0.12118
      87 -> 95         0.30111
      87 -> 96         0.17120

 Excited State  43:      Singlet-A      6.4833 eV  191.23 nm  f=0.0145  <S**2>=0.000
      82 -> 90         0.63844
      87 -> 96        -0.18076
      88 -> 97         0.12950
      88 -> 98        -0.10321

 Excited State  44:      Singlet-A      6.4957 eV  190.87 nm  f=0.0010  <S**2>=0.000
      87 -> 97         0.63924
      87 -> 98        -0.14508
      88 -> 91         0.11138
      88 -> 96        -0.18497

 Excited State  45:      Singlet-A      6.5289 eV  189.90 nm  f=0.1558  <S**2>=0.000
      86 -> 95         0.60967
      89 ->108         0.20389
      89 ->110         0.12403

 Excited State  46:      Singlet-A      6.5515 eV  189.24 nm  f=0.0038  <S**2>=0.000
      86 -> 95        -0.19213
      86 -> 96         0.13645
      89 ->108         0.61894
      89 ->110         0.18417

 Excited State  47:      Singlet-A      6.6139 eV  187.46 nm  f=0.0009  <S**2>=0.000
      86 -> 97        -0.15117
      89 ->109         0.64484
      89 ->115         0.10120

 Excited State  48:      Singlet-A      6.6149 eV  187.43 nm  f=0.0160  <S**2>=0.000
      86 -> 95        -0.10058
      86 -> 96        -0.31954
      89 ->108        -0.13520
      89 ->110         0.57851

 Excited State  49:      Singlet-A      6.6535 eV  186.34 nm  f=0.0008  <S**2>=0.000
      81 -> 90        -0.12908
      86 -> 96         0.56938
      89 ->108        -0.19345
      89 ->110         0.29477

 Excited State  50:      Singlet-A      6.6906 eV  185.31 nm  f=0.0019  <S**2>=0.000
      86 -> 97         0.15382
      87 -> 96        -0.24546
      87 -> 99         0.17646
      87 ->101        -0.25556
      88 -> 97         0.15479
      88 -> 98         0.50702

 Excited State  51:      Singlet-A      6.7004 eV  185.04 nm  f=0.0002  <S**2>=0.000
      84 -> 91        -0.21755
      87 -> 98         0.37386
      87 ->100         0.10807
      88 -> 99         0.36582
      88 ->101        -0.34616

 Excited State  52:      Singlet-A      6.7233 eV  184.41 nm  f=0.0053  <S**2>=0.000
      85 -> 91        -0.27850
      86 -> 97         0.55539
      88 -> 98        -0.17008
      89 ->109         0.18164
      89 ->112         0.13494

 Excited State  53:      Singlet-A      6.7388 eV  183.99 nm  f=0.0042  <S**2>=0.000
      79 -> 90        -0.28063
      81 -> 90         0.61332

 Excited State  54:      Singlet-A      6.7637 eV  183.31 nm  f=0.0011  <S**2>=0.000
      84 -> 91         0.50568
      87 ->102        -0.10708
      88 -> 96         0.10709
      88 -> 99         0.40862

 Excited State  55:      Singlet-A      6.8002 eV  182.32 nm  f=0.0035  <S**2>=0.000
      87 ->101        -0.11515
      88 -> 98        -0.14830
      88 ->100         0.63107

 Excited State  56:      Singlet-A      6.8262 eV  181.63 nm  f=0.0019  <S**2>=0.000
      84 -> 91         0.38567
      85 -> 92         0.15472
      87 -> 98         0.29616
      87 ->102         0.11400
      88 -> 96        -0.12038
      88 -> 99        -0.33549
      88 ->101        -0.25476

 Excited State  57:      Singlet-A      6.8272 eV  181.60 nm  f=0.0099  <S**2>=0.000
      80 -> 90         0.69529

 Excited State  58:      Singlet-A      6.8710 eV  180.44 nm  f=0.0072  <S**2>=0.000
      86 -> 97        -0.10633
      86 -> 98         0.16740
      87 -> 96        -0.11373
      87 -> 99        -0.23791
      89 ->111         0.13301
      89 ->112         0.55433

 Excited State  59:      Singlet-A      6.8813 eV  180.18 nm  f=0.0134  <S**2>=0.000
      85 -> 93        -0.11053
      89 ->109        -0.10138
      89 ->111         0.65501

 Excited State  60:      Singlet-A      6.8885 eV  179.99 nm  f=0.0050  <S**2>=0.000
      83 -> 91        -0.22161
      85 -> 93        -0.10189
      87 -> 96         0.10423
      87 -> 99         0.50004
      88 ->102        -0.19753
      88 ->104        -0.11521
      89 ->112         0.27899

 Excited State  61:      Singlet-A      6.8927 eV  179.88 nm  f=0.0112  <S**2>=0.000
      84 -> 95        -0.10060
      85 -> 92         0.61052
      87 -> 94         0.11750
      88 -> 95         0.11184
      88 -> 99         0.15852

 Excited State  62:      Singlet-A      6.9154 eV  179.29 nm  f=0.0069  <S**2>=0.000
      79 -> 90        -0.15169
      87 -> 98        -0.28247
      87 ->100         0.56633
      88 ->101        -0.10648

 Excited State  63:      Singlet-A      6.9404 eV  178.64 nm  f=0.0382  <S**2>=0.000
      83 -> 91         0.57155
      84 -> 97         0.10413
      85 -> 91         0.10395
      85 -> 93        -0.23691
      87 -> 99         0.14229
      88 -> 98        -0.13442

 Excited State  64:      Singlet-A      6.9508 eV  178.37 nm  f=0.0131  <S**2>=0.000
      76 -> 90        -0.22121
      78 -> 90        -0.25179
      79 -> 90         0.49537
      81 -> 90         0.19756
      87 ->100         0.13162
      89 ->113        -0.11608
      89 ->114         0.13701

 Excited State  65:      Singlet-A      6.9693 eV  177.90 nm  f=0.0008  <S**2>=0.000
      76 -> 90        -0.18421
      78 -> 90         0.62993
      79 -> 90         0.17602

 Excited State  66:      Singlet-A      6.9820 eV  177.58 nm  f=0.1979  <S**2>=0.000
      83 -> 91         0.19253
      84 -> 94        -0.12035
      85 -> 93         0.57893
      87 -> 99         0.15181

 Excited State  67:      Singlet-A      7.0187 eV  176.65 nm  f=0.0139  <S**2>=0.000
      85 -> 96        -0.10647
      86 -> 97         0.12412
      86 -> 98         0.58404
      86 ->100         0.14168
      89 ->112        -0.21105
      89 ->115         0.13725

 Excited State  68:      Singlet-A      7.0395 eV  176.13 nm  f=0.0003  <S**2>=0.000
      76 -> 90        -0.32423
      89 ->113         0.56476
      89 ->114        -0.14784

 Excited State  69:      Singlet-A      7.0590 eV  175.64 nm  f=0.0012  <S**2>=0.000
      76 -> 90        -0.10404
      87 -> 97         0.10757
      87 -> 98         0.32982
      87 ->100         0.25205
      87 ->102        -0.11644
      87 ->104         0.19785
      88 -> 96        -0.12068
      88 ->101         0.44800

 Excited State  70:      Singlet-A      7.0703 eV  175.36 nm  f=0.0069  <S**2>=0.000
      76 -> 90         0.40136
      79 -> 90         0.21646
      81 -> 90         0.11510
      88 ->103        -0.22154
      89 ->113         0.35215
      89 ->114         0.18991

 Excited State  71:      Singlet-A      7.0713 eV  175.33 nm  f=0.0025  <S**2>=0.000
      83 -> 91         0.14193
      87 -> 96        -0.10588
      87 ->101         0.45218
      87 ->103        -0.10721
      88 -> 98         0.18559
      88 ->100         0.12591
      88 ->102        -0.26748
      88 ->104         0.29460
      89 ->115         0.11131

 Excited State  72:      Singlet-A      7.1093 eV  174.40 nm  f=0.0059  <S**2>=0.000
      86 -> 98        -0.17399
      89 ->115         0.64145

 Excited State  73:      Singlet-A      7.1119 eV  174.33 nm  f=0.0042  <S**2>=0.000
      79 -> 90        -0.11940
      85 -> 94        -0.17604
      86 -> 99         0.51611
      89 ->114         0.33953

 Excited State  74:      Singlet-A      7.1297 eV  173.90 nm  f=0.0086  <S**2>=0.000
      79 -> 90        -0.13768
      86 -> 99        -0.41962
      88 ->103         0.16393
      89 ->114         0.45577

 Excited State  75:      Singlet-A      7.1380 eV  173.69 nm  f=0.0250  <S**2>=0.000
      74 -> 90        -0.12127
      77 -> 90        -0.12400
      86 -> 98        -0.16736
      86 ->100         0.62745

 Excited State  76:      Singlet-A      7.1476 eV  173.46 nm  f=0.0017  <S**2>=0.000
      76 -> 90         0.23502
      88 ->101         0.10601
      88 ->103         0.57861

 Excited State  77:      Singlet-A      7.1611 eV  173.13 nm  f=0.0015  <S**2>=0.000
      77 -> 90         0.66273
      86 ->100         0.10376
      87 ->103         0.11528

 Excited State  78:      Singlet-A      7.1842 eV  172.58 nm  f=0.0116  <S**2>=0.000
      83 -> 92        -0.26031
      84 -> 93         0.24574
      85 -> 94         0.50988
      86 -> 99         0.13720
      86 ->101        -0.10388
      89 ->114         0.21285

 Excited State  79:      Singlet-A      7.2118 eV  171.92 nm  f=0.0081  <S**2>=0.000
      87 -> 99         0.25405
      87 ->101         0.17169
      87 ->106        -0.15382
      88 ->102         0.50905
      88 ->104         0.27294

 Excited State  80:      Singlet-A      7.2192 eV  171.74 nm  f=0.0388  <S**2>=0.000
      82 -> 91        -0.11668
      83 -> 93        -0.19938
      84 -> 92         0.44296
      85 -> 95         0.25358
      86 -> 94         0.10131
      86 ->100         0.11896
      87 ->103        -0.23183
      88 ->104         0.13650
      89 ->116        -0.12614

 Excited State  81:      Singlet-A      7.2381 eV  171.29 nm  f=0.0001  <S**2>=0.000
      86 ->101         0.58774
      87 ->102        -0.22184
      88 ->106         0.16098

 Excited State  82:      Singlet-A      7.2428 eV  171.18 nm  f=0.0281  <S**2>=0.000
      77 -> 90        -0.10494
      83 -> 93        -0.10794
      84 -> 92         0.22632
      85 -> 95         0.14385
      87 ->101         0.24935
      87 ->103         0.46256
      88 ->104        -0.17002
      89 ->116         0.12992

 Excited State  83:      Singlet-A      7.2727 eV  170.48 nm  f=0.0039  <S**2>=0.000
      86 ->101         0.27979
      86 ->103         0.11235
      87 ->102         0.45729
      87 ->104         0.16545
      88 -> 99         0.11772
      88 ->101         0.11266
      88 ->106        -0.29441
      88 ->107         0.11394

 Excited State  84:      Singlet-A      7.2818 eV  170.27 nm  f=0.0003  <S**2>=0.000
      87 ->103        -0.16380
      89 ->116         0.64531
      89 ->118         0.14445

 Excited State  85:      Singlet-A      7.2954 eV  169.95 nm  f=0.0000  <S**2>=0.000
      86 ->103        -0.26959
      89 ->117         0.40685
      89 ->119         0.17629
      89 ->120         0.39489

 Excited State  86:      Singlet-A      7.3337 eV  169.06 nm  f=0.0110  <S**2>=0.000
      75 -> 90        -0.14949
      86 ->103         0.17113
      89 ->117         0.54705
      89 ->120        -0.30962

 Excited State  87:      Singlet-A      7.3463 eV  168.77 nm  f=0.0088  <S**2>=0.000
      87 ->101        -0.10270
      87 ->106        -0.13102
      87 ->107        -0.10437
      88 ->102        -0.10372
      88 ->104         0.26126
      88 ->105         0.50775
      89 ->118         0.24175

 Excited State  88:      Singlet-A      7.3602 eV  168.45 nm  f=0.0070  <S**2>=0.000
      75 -> 90         0.65284
      76 -> 90         0.11154
      89 ->120        -0.11037

 Excited State  89:      Singlet-A      7.3639 eV  168.37 nm  f=0.0060  <S**2>=0.000
      88 ->105        -0.27906
      89 ->115         0.12960
      89 ->116        -0.14371
      89 ->118         0.56906
      89 ->121         0.12988

 Excited State  90:      Singlet-A      7.3881 eV  167.82 nm  f=0.0021  <S**2>=0.000
      87 ->101        -0.25844
      87 ->103         0.36343
      87 ->106         0.18094
      88 ->102        -0.12304
      88 ->104         0.38472
      88 ->105        -0.20206
      89 ->118        -0.13766

 Excited State  91:      Singlet-A      7.4110 eV  167.30 nm  f=0.1758  <S**2>=0.000
      83 -> 92        -0.16817
      84 -> 93         0.13713
      85 -> 94        -0.13403
      86 ->103        -0.12966
      87 ->104         0.31436
      87 ->105        -0.25478
      87 ->108         0.13789
      88 ->101        -0.10608
      88 ->106         0.27426
      88 ->107         0.21965
      89 ->119        -0.14579

 Excited State  92:      Singlet-A      7.4263 eV  166.95 nm  f=0.1869  <S**2>=0.000
      83 -> 92         0.18847
      84 -> 93        -0.15298
      85 -> 94         0.14647
      87 ->102        -0.11688
      87 ->104         0.47326
      87 ->105         0.13960
      88 ->101        -0.14493
      88 ->103         0.10531
      88 ->107        -0.18236
      88 ->109         0.12290

 Excited State  93:      Singlet-A      7.4403 eV  166.64 nm  f=0.0010  <S**2>=0.000
      74 -> 90         0.10594
      84 -> 92        -0.25296
      84 -> 94         0.11716
      85 -> 95         0.53267
      86 ->102        -0.17430
      87 ->107        -0.14334
      88 ->105        -0.10062

 Excited State  94:      Singlet-A      7.4495 eV  166.43 nm  f=0.1948  <S**2>=0.000
      83 -> 92        -0.21851

 The electronic state is 1-A.
 Alpha  occ. eigenvalues --  -88.91022 -88.91022 -14.40438 -14.40437 -10.29519
 Alpha  occ. eigenvalues --  -10.29518 -10.24725 -10.24725 -10.23409 -10.23409
 Alpha  occ. eigenvalues --  -10.22444 -10.22444 -10.20381 -10.19997 -10.19997
 Alpha  occ. eigenvalues --  -10.19665 -10.19665 -10.19136 -10.19136 -10.18917
 Alpha  occ. eigenvalues --  -10.18917 -10.16818 -10.16818  -7.99659  -7.99658
 Alpha  occ. eigenvalues --   -5.95994  -5.95994  -5.95613  -5.95612  -5.95147
 Alpha  occ. eigenvalues --   -5.95147  -1.02987  -1.02643  -0.88742  -0.88609
 Alpha  occ. eigenvalues --   -0.86697  -0.84590  -0.81412  -0.78467  -0.78041
 Alpha  occ. eigenvalues --   -0.77057  -0.75802  -0.75101  -0.72735  -0.66967
 Alpha  occ. eigenvalues --   -0.66625  -0.66428  -0.64049  -0.62121  -0.62065
 Alpha  occ. eigenvalues --   -0.59890  -0.57582  -0.54297  -0.53650  -0.53502
 Alpha  occ. eigenvalues --   -0.51704  -0.50887  -0.48721  -0.48604  -0.47918
 Alpha  occ. eigenvalues --   -0.47001  -0.46810  -0.46537  -0.46486  -0.44554
 Alpha  occ. eigenvalues --   -0.44273  -0.44190  -0.42894  -0.41300  -0.41074
 Alpha  occ. eigenvalues --   -0.40354  -0.40006  -0.39104  -0.38627  -0.38381
 Alpha  occ. eigenvalues --   -0.37960  -0.37700  -0.36993  -0.36561  -0.36396
 Alpha  occ. eigenvalues --   -0.35898  -0.35515  -0.33065  -0.32521  -0.30639
 Alpha  occ. eigenvalues --   -0.27038  -0.26356  -0.25877  -0.21667
 Alpha virt. eigenvalues --   -0.08674  -0.04046  -0.03648  -0.03117  -0.02312
 Alpha virt. eigenvalues --   -0.01585  -0.00407  -0.00065   0.00925   0.01027
 Alpha virt. eigenvalues --    0.01260   0.01654   0.02502   0.02725   0.02945

 Mulliken charges:
               1
     1  C   -0.149040
     2  C   -0.595676
     3  C   -0.148978
     4  N    0.698579
     5  S   -0.529584
     6  C    1.102714
     7  C   -0.169602
     8  N    0.698500
     9  S   -0.529633
    10  C    1.102797
    11  C   -0.169643
    12  C   -0.839916
    13  C    0.109909
    14  C   -0.597383
    15  C   -0.152024
    16  C   -0.839998
    17  C    0.109879
    18  C   -0.597419
    19  C   -0.151965
    20  C   -0.575539
    21  C   -0.716831
    22  C   -0.575641
    23  C   -0.716749
    24  H    0.309397
    25  H    0.277923
    26  H    0.269752
    27  H    0.271884
    28  H    0.279801
    29  H    0.277925
    30  H    0.269752
    31  H    0.271885
    32  H    0.279805
    33  H    0.271490
    34  H    0.275776
    35  H    0.273706
    36  H    0.274420
    37  H    0.267170
    38  H    0.271490
    39  H    0.275774
    40  H    0.273707
    41  H    0.274419
    42  H    0.267165
 Sum of Mulliken charges =   1.00000

 Dipole moment (field-independent basis, Debye):
    X=              0.0001    Y=              5.3440    Z=              0.0001  Tot=              5.3440
 Quadrupole moment (field-independent basis, Debye-Ang):
   XX=            -70.2839   YY=           -110.4919   ZZ=           -155.8096
   XY=             -0.0004   XZ=              2.2238   YZ=             -0.0005

 Normal termination of Gaussian 16 at Sat Nov  4 19:53:09 2023.
