 Gaussian 16, Revision C.02,
 Gaussian 16:  ES64L-G16RevC.02  7-Dec-2021

 ------------------------------------------------------------
 # td=(nstates=150) b3lyp/6-311+g* scrf(smd, solvent=ethanol)
 ------------------------------------------------------------

 ---
 A-2
 ---
 Symbolic Z-matrix:
 Charge =  1 Multiplicity = 1

                         Standard orientation:
 ---------------------------------------------------------------------
 Center     Atomic      Atomic             Coordinates (Angstroms)
 Number     Number       Type             X           Y           Z
 ---------------------------------------------------------------------
      1          6           0        1.185932    1.124188    0.259065
      2          6           0       -0.064042    0.518894    0.184736
      3          6           0       -1.255062    1.232433    0.206071
      4          6           0       -2.576908    0.775971    0.134368
      5          6           0        2.392634    0.431471    0.171283
      6         16           0       -3.827667    1.970009   -0.187075
      7          6           0       -5.077877    0.744792   -0.134775
      8          6           0       -4.509195   -0.508640    0.113846
      9          7           0       -3.118372   -0.458179    0.279721
     10         16           0        2.505198   -1.300121   -0.125106
     11          6           0        4.260315   -1.225762   -0.102553
     12          6           0        4.688784    0.087010    0.119416
     13          7           0        3.627512    0.981655    0.287411
     14          6           0        5.159317   -2.267461   -0.279503
     15          6           0        6.517913   -1.973596   -0.237257
     16          6           0        6.953940   -0.663841   -0.025333
     17          6           0        6.051566    0.378213    0.153458
     18          6           0       -6.446804    0.904176   -0.304215
     19          6           0       -7.251229   -0.226106   -0.226408
     20          6           0       -6.689747   -1.482485    0.014868
     21          6           0       -5.320051   -1.640504    0.186250
     22          6           0        3.847144    2.415669    0.554580
     23          6           0        3.911762    3.249637   -0.717632
     24          6           0       -2.369369   -1.660308    0.692423
     25          6           0       -1.918854   -2.522991   -0.479110
     26          1           0        1.228852    2.199196    0.376562
     27          1           0       -0.096636   -0.556945    0.072235
     28          1           0       -1.165193    2.314370    0.224199
     29          1           0        4.813961   -3.279951   -0.448352
     30          1           0        7.240415   -2.768718   -0.373960
     31          1           0        8.015538   -0.449707   -0.002068
     32          1           0        6.406822    1.388085    0.306065
     33          1           0       -6.875736    1.880738   -0.491225
     34          1           0       -8.321880   -0.129159   -0.357431
     35          1           0       -7.330326   -2.354283    0.067360
     36          1           0       -4.901973   -2.621689    0.363736
     37          1           0        3.048585    2.754296    1.212168
     38          1           0        4.772710    2.494849    1.122044
     39          1           0        4.082538    4.295496   -0.452515
     40          1           0        4.728911    2.924468   -1.364544
     41          1           0        2.978199    3.187215   -1.279982
     42          1           0       -1.531667   -1.329317    1.302601
     43          1           0       -3.027666   -2.224702    1.351768
     44          1           0       -1.276100   -1.972556   -1.168349
     45          1           0       -1.359149   -3.379171   -0.096017
     46          1           0       -2.775672   -2.899604   -1.040801
 ---------------------------------------------------------------------

 SCF Done:  E(RB3LYP) =  -1718.89744357     A.U. after   15 cycles

 Excitation energies and oscillator strengths:

 Excited State   1:      Singlet-A      2.5883 eV  479.01 nm  f=1.6884  <S**2>=0.000
      96 -> 97         0.70667
 This state for optimization and/or second-order correction.
 Total Energy, E(TD-HF/TD-DFT) =  -1718.80232420
 Copying the excited state density for this state as the 1-particle RhoCI density.

 Excited State   2:      Singlet-A      3.8470 eV  322.29 nm  f=0.0359  <S**2>=0.000
      93 -> 97        -0.10880
      94 -> 97         0.12240
      95 -> 97         0.64570
      96 -> 98        -0.11375
      96 -> 99        -0.15891

 Excited State   3:      Singlet-A      3.8944 eV  318.36 nm  f=0.0156  <S**2>=0.000
      93 -> 97         0.31196
      94 -> 97         0.57262
      96 -> 98         0.14929
      96 -> 99        -0.17615

 Excited State   4:      Singlet-A      4.0122 eV  309.02 nm  f=0.0117  <S**2>=0.000
      93 -> 97         0.52574
      94 -> 97        -0.28165
      95 -> 97         0.19576
      96 -> 98         0.26930
      96 -> 99         0.10457
      96 ->100        -0.13278

 Excited State   5:      Singlet-A      4.1097 eV  301.68 nm  f=0.0034  <S**2>=0.000
      93 -> 97        -0.10167
      96 -> 98         0.25422
      96 ->100         0.19917
      96 ->101         0.60439

 Excited State   6:      Singlet-A      4.1493 eV  298.81 nm  f=0.0957  <S**2>=0.000
      94 -> 97         0.21607
      95 -> 97         0.12886
      96 -> 99         0.63957

 Excited State   7:      Singlet-A      4.1744 eV  297.01 nm  f=0.0301  <S**2>=0.000
      93 -> 97        -0.27635
      96 -> 98         0.54158
      96 ->101        -0.31110

 Excited State   8:      Singlet-A      4.2938 eV  288.75 nm  f=0.0055  <S**2>=0.000
      96 ->100         0.24769
      96 ->103         0.63912

 Excited State   9:      Singlet-A      4.3463 eV  285.26 nm  f=0.0256  <S**2>=0.000
      93 -> 97         0.10266
      94 -> 97        -0.12976
      96 -> 98        -0.11780
      96 ->100         0.57931
      96 ->101        -0.15247
      96 ->103        -0.25497

 Excited State  10:      Singlet-A      4.5474 eV  272.65 nm  f=0.0364  <S**2>=0.000
      92 -> 97        -0.17656
      96 ->102         0.66730

 Excited State  11:      Singlet-A      4.7508 eV  260.97 nm  f=0.0049  <S**2>=0.000
      92 -> 97         0.36091
      96 ->104         0.58641

 Excited State  12:      Singlet-A      4.7867 eV  259.02 nm  f=0.0359  <S**2>=0.000
      92 -> 97         0.55444
      96 ->102         0.15088
      96 ->104        -0.35657

 Excited State  13:      Singlet-A      4.9989 eV  248.02 nm  f=0.0153  <S**2>=0.000
      96 ->105         0.68183

 Excited State  14:      Singlet-A      5.0547 eV  245.29 nm  f=0.0004  <S**2>=0.000
      96 ->106         0.68132

 Excited State  15:      Singlet-A      5.3036 eV  233.78 nm  f=0.0154  <S**2>=0.000
      96 ->107         0.66820

 Excited State  16:      Singlet-A      5.4069 eV  229.31 nm  f=0.0001  <S**2>=0.000
      96 ->108         0.66480
      96 ->109        -0.10645

 Excited State  17:      Singlet-A      5.4192 eV  228.79 nm  f=0.0830  <S**2>=0.000
      92 -> 99        -0.11744
      93 -> 98         0.35867
      94 -> 98        -0.10900
      94 -> 99        -0.16535
      94 ->100         0.22647
      94 ->102         0.13863
      95 -> 98         0.13220
      95 ->100        -0.24978
      96 ->109        -0.14283
      96 ->110        -0.26899

 Excited State  18:      Singlet-A      5.4461 eV  227.65 nm  f=0.0257  <S**2>=0.000
      91 -> 97        -0.13540
      92 -> 98         0.10107
      93 -> 98         0.17517
      93 -> 99        -0.26368
      94 ->100         0.22584
      95 ->102        -0.10570
      96 ->109         0.16172
      96 ->110         0.46304

 Excited State  19:      Singlet-A      5.4648 eV  226.88 nm  f=0.0304  <S**2>=0.000
      91 -> 97         0.15690
      92 -> 98        -0.11436
      93 -> 99         0.32961
      94 -> 98        -0.12000
      94 -> 99        -0.18986
      94 ->100        -0.17430
      95 ->100        -0.19807
      95 ->102         0.21011
      96 ->110         0.35258

 Excited State  20:      Singlet-A      5.4960 eV  225.59 nm  f=0.0068  <S**2>=0.000
      96 ->108         0.15002
      96 ->109         0.61750
      96 ->110        -0.20048
      96 ->113        -0.10177

 Excited State  21:      Singlet-A      5.5240 eV  224.45 nm  f=0.0013  <S**2>=0.000
      93 ->101         0.28505
      93 ->103         0.11775
      94 ->101         0.53311
      94 ->103         0.20708
      95 ->101        -0.14726

 Excited State  22:      Singlet-A      5.5634 eV  222.86 nm  f=0.0164  <S**2>=0.000
      91 -> 97         0.50569
      93 -> 99        -0.10269
      94 ->100         0.10688
      95 -> 98        -0.15801
      95 -> 99        -0.22274
      95 ->101        -0.15323
      95 ->103         0.21155

 Excited State  23:      Singlet-A      5.5821 eV  222.11 nm  f=0.0109  <S**2>=0.000
      90 -> 97         0.13894
      91 -> 97        -0.25648
      93 ->103        -0.10357
      94 -> 98         0.10448
      94 ->101        -0.13020
      94 ->103         0.12349
      95 -> 99         0.10270
      95 ->101        -0.29267
      95 ->103         0.45912

 Excited State  24:      Singlet-A      5.5906 eV  221.77 nm  f=0.0561  <S**2>=0.000
      90 -> 97         0.49975
      93 ->100        -0.20775
      94 -> 98         0.24162
      94 -> 99        -0.15054
      95 -> 98        -0.17980
      95 ->101         0.12430
      95 ->103        -0.16223

 Excited State  25:      Singlet-A      5.6730 eV  218.55 nm  f=0.0228  <S**2>=0.000
      96 ->111        -0.23534
      96 ->112         0.62876

 Excited State  26:      Singlet-A      5.6984 eV  217.58 nm  f=0.0046  <S**2>=0.000
      96 ->111         0.62275
      96 ->112         0.22142
      96 ->113        -0.11770

 Excited State  27:      Singlet-A      5.7306 eV  216.35 nm  f=0.0966  <S**2>=0.000
      90 -> 97         0.24093
      91 -> 97         0.26312
      93 ->100         0.17065
      94 -> 99         0.12113
      95 -> 98         0.36489
      95 -> 99         0.35700

 Excited State  28:      Singlet-A      5.7704 eV  214.86 nm  f=0.0418  <S**2>=0.000
      90 -> 97        -0.31811
      91 -> 97         0.19923
      93 ->100        -0.18517
      93 ->101        -0.18043
      94 -> 98         0.36432
      94 -> 99        -0.17304
      95 -> 99         0.21426

 Excited State  29:      Singlet-A      5.7931 eV  214.02 nm  f=0.0014  <S**2>=0.000
      90 -> 97        -0.12965
      93 -> 98         0.10327
      93 ->101         0.29689
      94 ->101        -0.11088
      95 ->101         0.10296
      96 ->113         0.51910
      96 ->114        -0.11583

 Excited State  30:      Singlet-A      5.8037 eV  213.63 nm  f=0.0047  <S**2>=0.000
      93 ->101         0.42534
      94 -> 98         0.10637
      94 ->101        -0.17473
      95 ->101         0.23397
      96 ->113        -0.38648

 Excited State  31:      Singlet-A      5.8753 eV  211.03 nm  f=0.0086  <S**2>=0.000
      89 -> 97         0.60006
      93 ->102         0.12579
      95 -> 99         0.10455
      96 ->115        -0.23505

 Excited State  32:      Singlet-A      5.8934 eV  210.38 nm  f=0.0072  <S**2>=0.000
      93 -> 98        -0.15299
      94 -> 98         0.26196
      95 -> 98         0.43650
      95 -> 99        -0.42090

 Excited State  33:      Singlet-A      5.9289 eV  209.12 nm  f=0.0012  <S**2>=0.000
      93 -> 98         0.26545
      93 -> 99         0.27806
      94 -> 98         0.27110
      94 -> 99         0.49434
      96 ->114         0.12019

 Excited State  34:      Singlet-A      5.9370 eV  208.83 nm  f=0.0032  <S**2>=0.000
      93 ->103        -0.15977
      94 ->103         0.11100
      96 ->114         0.61514

 Excited State  35:      Singlet-A      5.9470 eV  208.48 nm  f=0.0038  <S**2>=0.000
      92 ->101         0.15505
      93 ->103         0.46381
      94 ->103        -0.30713
      95 ->103         0.23152
      96 ->113         0.10762
      96 ->114         0.20731
      96 ->115         0.11305

 Excited State  36:      Singlet-A      5.9689 eV  207.72 nm  f=0.0073  <S**2>=0.000
      89 -> 97         0.19102
      96 ->115         0.58143
      96 ->117        -0.21009

 Excited State  37:      Singlet-A      5.9885 eV  207.04 nm  f=0.1623  <S**2>=0.000
      93 -> 98         0.25642
      93 -> 99         0.14025
      94 -> 99        -0.12819
      95 ->100         0.56387
      95 ->105         0.10537

 Excited State  38:      Singlet-A      6.0116 eV  206.24 nm  f=0.1915  <S**2>=0.000
      93 -> 98        -0.24600
      93 -> 99         0.25587
      93 ->100         0.10454
      94 -> 98         0.11385
      94 ->100         0.48007
      96 ->116        -0.17373
      96 ->117         0.12718

 Excited State  39:      Singlet-A      6.0455 eV  205.08 nm  f=0.0811  <S**2>=0.000
      93 ->100         0.48700
      93 ->105         0.10995
      94 -> 98         0.11767
      94 -> 99        -0.11777
      94 ->100        -0.20287
      94 ->102        -0.12004
      95 -> 98        -0.12900
      96 ->116        -0.23659
      96 ->117         0.10874

 Excited State  40:      Singlet-A      6.0909 eV  203.56 nm  f=0.0517  <S**2>=0.000
      89 -> 97        -0.11752
      93 ->100         0.24537
      96 ->115        -0.12356
      96 ->116         0.43241
      96 ->117        -0.34938

 Excited State  41:      Singlet-A      6.1248 eV  202.43 nm  f=0.0051  <S**2>=0.000
      96 ->115         0.15320
      96 ->116         0.42597
      96 ->117         0.50323

 Excited State  42:      Singlet-A      6.1704 eV  200.93 nm  f=0.1287  <S**2>=0.000
      92 -> 98        -0.15479
      93 -> 99        -0.26964
      94 -> 98         0.10288
      94 -> 99         0.11994
      94 ->105         0.11235
      95 ->101         0.18596
      95 ->102         0.46664
      95 ->103         0.11646
      96 ->117         0.10143

 Excited State  43:      Singlet-A      6.1918 eV  200.24 nm  f=0.0038  <S**2>=0.000
      93 ->101        -0.19253
      93 ->103        -0.13479
      94 ->101         0.22225
      94 ->103         0.14952
      95 ->101         0.45766
      95 ->102        -0.23994
      95 ->103         0.28605

 Excited State  44:      Singlet-A      6.2280 eV  199.08 nm  f=0.1408  <S**2>=0.000
      92 -> 99        -0.14365
      93 -> 98        -0.15218
      93 ->102         0.17674
      93 ->105        -0.10119
      94 -> 98         0.10891
      94 ->102         0.49606
      94 ->104         0.14060
      94 ->105        -0.12013
      95 -> 98        -0.11717
      95 ->104         0.10320

 Excited State  45:      Singlet-A      6.2715 eV  197.70 nm  f=0.0071  <S**2>=0.000
      93 ->101        -0.13237
      93 ->103         0.32024
      93 ->104        -0.13473
      94 ->101        -0.16428
      94 ->103         0.43758
      94 ->104        -0.18275
      94 ->106         0.18309
      95 ->104         0.16760

 Excited State  46:      Singlet-A      6.2943 eV  196.98 nm  f=0.0331  <S**2>=0.000
      84 -> 97        -0.13320
      86 -> 97         0.15340
      88 -> 97         0.38468
      93 ->102         0.17865
      94 ->103         0.10279
      95 ->104        -0.33450
      95 ->106        -0.22940

 Excited State  47:      Singlet-A      6.2967 eV  196.90 nm  f=0.0107  <S**2>=0.000
      84 -> 97        -0.14852
      86 -> 97         0.17238
      88 -> 97         0.42740
      93 ->104        -0.10231
      94 ->103        -0.10110
      94 ->106         0.10549
      95 ->104         0.32180
      95 ->106         0.22238

 Excited State  48:      Singlet-A      6.3178 eV  196.25 nm  f=0.0222  <S**2>=0.000
      93 ->102         0.41561
      93 ->104         0.16243
      94 ->102        -0.23136
      95 ->104         0.12649
      96 ->118         0.30840
      96 ->120        -0.17386

 Excited State  49:      Singlet-A      6.3276 eV  195.94 nm  f=0.0066  <S**2>=0.000
      93 ->103         0.18292
      93 ->104         0.16931
      93 ->106        -0.18178
      94 ->103         0.19289
      94 ->104         0.43020
      94 ->106        -0.15441
      96 ->118        -0.18014
      96 ->120         0.22713
      96 ->121         0.10472

 Excited State  50:      Singlet-A      6.3389 eV  195.59 nm  f=0.0150  <S**2>=0.000
      88 -> 97        -0.12236
      93 ->102         0.31665
      94 ->104        -0.19284
      94 ->106         0.11915
      95 ->104         0.15609
      96 ->118        -0.29647
      96 ->119        -0.20353
      96 ->120         0.28853
      96 ->121         0.14608

 Excited State  51:      Singlet-A      6.3576 eV  195.02 nm  f=0.0049  <S**2>=0.000
      93 ->102         0.11241
      93 ->104         0.10286
      96 ->118        -0.27019
      96 ->119         0.59099

 Excited State  52:      Singlet-A      6.3927 eV  193.95 nm  f=0.0019  <S**2>=0.000
      93 ->104        -0.14992
      96 ->118         0.39368
      96 ->119         0.27377
      96 ->120         0.40876
      96 ->121         0.20294

 Excited State  53:      Singlet-A      6.4301 eV  192.82 nm  f=0.0051  <S**2>=0.000
      87 -> 97         0.23411
      93 ->102        -0.15119
      93 ->104         0.48736
      94 ->104        -0.24069
      95 ->104         0.19649
      95 ->105        -0.10389
      96 ->120         0.12633

 Excited State  54:      Singlet-A      6.4530 eV  192.13 nm  f=0.0005  <S**2>=0.000
      87 -> 97         0.63410
      93 ->102         0.10685
      93 ->104        -0.12555
      95 ->105         0.12381

 Excited State  55:      Singlet-A      6.4864 eV  191.14 nm  f=0.0271  <S**2>=0.000
      92 -> 99        -0.17905
      95 ->102        -0.13774
      95 ->105         0.57719
      96 ->120         0.10351
      96 ->122         0.11716

 Excited State  56:      Singlet-A      6.5098 eV  190.46 nm  f=0.0025  <S**2>=0.000
      85 -> 97         0.16075
      86 -> 97         0.57179
      88 -> 97        -0.29629
      95 ->105        -0.10695

 Excited State  57:      Singlet-A      6.5265 eV  189.97 nm  f=0.0022  <S**2>=0.000
      96 ->120        -0.28732
      96 ->121         0.58930
      96 ->122        -0.14249

 Excited State  58:      Singlet-A      6.5414 eV  189.54 nm  f=0.0658  <S**2>=0.000
      92 -> 98        -0.13868
      92 -> 99         0.15772
      93 ->105        -0.15703
      94 ->102         0.13035
      94 ->105         0.38696
      95 ->102        -0.10195
      95 ->105         0.13547
      96 ->121        -0.16695
      96 ->122        -0.38017

 Excited State  59:      Singlet-A      6.5528 eV  189.21 nm  f=0.0079  <S**2>=0.000
      92 -> 98        -0.18344
      94 ->102         0.13030
      94 ->105         0.33076
      96 ->122         0.49781

 Excited State  60:      Singlet-A      6.5897 eV  188.15 nm  f=0.0302  <S**2>=0.000
      85 -> 97        -0.37922
      93 ->105         0.49462
      94 ->102         0.12102
      94 ->105         0.10925

 Excited State  61:      Singlet-A      6.6139 eV  187.46 nm  f=0.0385  <S**2>=0.000
      83 -> 97         0.12602
      85 -> 97         0.49843
      86 -> 97        -0.19138
      92 -> 98        -0.16918
      93 ->105         0.30237

 Excited State  62:      Singlet-A      6.6335 eV  186.91 nm  f=0.0380  <S**2>=0.000
      92 -> 98         0.20232
      92 -> 99         0.21310
      93 ->106         0.25390
      94 ->106        -0.16231
      95 ->102         0.10523
      95 ->104        -0.12716
      95 ->106         0.33741
      95 ->107         0.13165
      96 ->123         0.20624

 Excited State  63:      Singlet-A      6.6421 eV  186.66 nm  f=0.1479  <S**2>=0.000
      85 -> 97         0.13895
      92 -> 98         0.37680
      92 -> 99        -0.26034
      94 ->105         0.30748
      94 ->107         0.12331
      94 ->108        -0.10504
      96 ->123        -0.19004

 Excited State  64:      Singlet-A      6.6490 eV  186.47 nm  f=0.0643  <S**2>=0.000
      84 -> 97         0.14493
      92 -> 98        -0.20023
      92 -> 99        -0.29455
      93 ->105        -0.16435
      93 ->106         0.34326
      94 ->106        -0.23414
      95 ->102        -0.12923
      95 ->106         0.18373
      95 ->107        -0.13268
      96 ->123        -0.11212

 Excited State  65:      Singlet-A      6.6612 eV  186.13 nm  f=0.0088  <S**2>=0.000
      92 ->100         0.21360
      92 ->101         0.35616
      95 ->104         0.14386
      95 ->106        -0.20494
      95 ->107        -0.15501
      95 ->108        -0.11356
      96 ->122        -0.10366
      96 ->123         0.34375

 Excited State  66:      Singlet-A      6.6847 eV  185.48 nm  f=0.0605  <S**2>=0.000
      92 -> 99        -0.26418
      92 ->101        -0.29383
      96 ->123         0.46159

 Excited State  67:      Singlet-A      6.6881 eV  185.38 nm  f=0.0023  <S**2>=0.000
      81 -> 97         0.10572
      83 -> 97         0.27753
      84 -> 97         0.44630
      86 -> 97         0.13730
      88 -> 97         0.16188
      92 ->100         0.11061
      92 ->101         0.20103
      93 ->105         0.10251
      93 ->106        -0.14444

 Excited State  68:      Singlet-A      6.6921 eV  185.27 nm  f=0.0439  <S**2>=0.000
      83 -> 97        -0.11148
      84 -> 97        -0.25522
      86 -> 97        -0.11762
      92 -> 98        -0.19335
      92 -> 99        -0.16504
      92 ->101         0.28257
      93 ->106        -0.14752
      94 ->106         0.15867
      95 ->104        -0.14618
      95 ->105        -0.10054
      95 ->106         0.20046
      95 ->107         0.10886
      95 ->108         0.10561
      95 ->109        -0.13928

 Excited State  69:      Singlet-A      6.7579 eV  183.47 nm  f=0.0001  <S**2>=0.000
      92 ->100        -0.14474
      92 ->101         0.10139
      93 ->104         0.20578
      93 ->106         0.29017
      93 ->108        -0.17047
      94 ->104         0.25985
      94 ->106         0.37206
      94 ->108        -0.24472

 Excited State  70:      Singlet-A      6.7759 eV  182.98 nm  f=0.0193  <S**2>=0.000
      92 ->100         0.51242
      92 ->101        -0.24154
      93 ->106         0.11299
      94 ->106         0.14642
      94 ->107        -0.13822
      95 ->107        -0.10281

 Excited State  71:      Singlet-A      6.7962 eV  182.43 nm  f=0.0438  <S**2>=0.000
      93 ->107        -0.13311
      93 ->108         0.18188
      94 ->107        -0.25879
      94 ->108         0.27693
      94 ->109         0.12765
      95 ->107         0.18965
      96 ->124         0.40557

 Excited State  72:      Singlet-A      6.8188 eV  181.83 nm  f=0.0272  <S**2>=0.000
      92 ->100         0.18779
      92 ->103        -0.10947
      93 ->107         0.11201
      94 ->105        -0.10312
      94 ->107         0.16936
      94 ->108        -0.20434
      95 ->108         0.10922
      96 ->123        -0.11098
      96 ->124         0.42379
      96 ->125         0.26357

 Excited State  73:      Singlet-A      6.8207 eV  181.78 nm  f=0.0107  <S**2>=0.000
      92 ->103         0.12198
      93 ->106         0.12561
      95 ->104         0.16854
      95 ->106        -0.16132
      95 ->107         0.45404
      96 ->124        -0.24551
      96 ->125         0.18684

 Excited State  74:      Singlet-A      6.8367 eV  181.35 nm  f=0.0038  <S**2>=0.000
      92 ->103         0.49051
      94 ->107         0.13034
      96 ->124         0.15774
      96 ->125        -0.34994

 Excited State  75:      Singlet-A      6.8471 eV  181.07 nm  f=0.0027  <S**2>=0.000
      80 -> 97         0.11906
      82 -> 97         0.26122
      83 -> 97         0.29378
      84 -> 97        -0.13133
      92 ->100        -0.11247
      92 ->103         0.29150
      93 ->107        -0.14469
      95 ->107        -0.16569
      96 ->125         0.30623

 Excited State  76:      Singlet-A      6.8764 eV  180.30 nm  f=0.0020  <S**2>=0.000
      80 -> 97         0.15424
      82 -> 97         0.38286
      83 -> 97         0.18180
      92 ->103        -0.22417
      93 ->107        -0.16468
      94 ->107         0.15364
      96 ->125        -0.32899

 Excited State  77:      Singlet-A      6.8982 eV  179.73 nm  f=0.0024  <S**2>=0.000
      80 -> 97         0.11431
      82 -> 97         0.33035
      93 ->107         0.44243
      94 ->107        -0.27270
      94 ->108        -0.10475
      95 ->107         0.13310

 The electronic state is 1-A.
 Alpha  occ. eigenvalues --  -88.90314 -88.90181 -14.40383 -14.40005 -10.28749
 Alpha  occ. eigenvalues --  -10.28364 -10.24381 -10.24268 -10.23046 -10.22985
 Alpha  occ. eigenvalues --  -10.22320 -10.22101 -10.21275 -10.19649 -10.19596
 Alpha  occ. eigenvalues --  -10.19397 -10.19300 -10.19225 -10.18872 -10.18829
 Alpha  occ. eigenvalues --  -10.18793 -10.18702 -10.18609 -10.16711 -10.16538
 Alpha  occ. eigenvalues --   -7.98969  -7.98835  -5.95297  -5.95172  -5.94923
 Alpha  occ. eigenvalues --   -5.94797  -5.94464  -5.94314  -1.02844  -1.02688
 Alpha  occ. eigenvalues --   -0.88670  -0.88570  -0.86153  -0.85280  -0.82832
 Alpha  occ. eigenvalues --   -0.79698  -0.78190  -0.77916  -0.76500  -0.75650
 Alpha  occ. eigenvalues --   -0.74968  -0.71747  -0.67064  -0.66545  -0.66346
 Alpha  occ. eigenvalues --   -0.64295  -0.62943  -0.61931  -0.60784  -0.58168
 Alpha  occ. eigenvalues --   -0.57646  -0.54151  -0.53478  -0.53380  -0.51400
 Alpha  occ. eigenvalues --   -0.50588  -0.48563  -0.48132  -0.48080  -0.47388
 Alpha  occ. eigenvalues --   -0.47002  -0.46782  -0.46259  -0.45871  -0.44640
 Alpha  occ. eigenvalues --   -0.44249  -0.42938  -0.42234  -0.41282  -0.41075
 Alpha  occ. eigenvalues --   -0.40382  -0.40024  -0.39254  -0.38921  -0.38187
 Alpha  occ. eigenvalues --   -0.38141  -0.37730  -0.37359  -0.37051  -0.36515
 Alpha  occ. eigenvalues --   -0.36118  -0.36027  -0.35883  -0.33233  -0.32550
 Alpha  occ. eigenvalues --   -0.32396  -0.28953  -0.26014  -0.25925  -0.25813
 Alpha  occ. eigenvalues --   -0.20117
 Alpha virt. eigenvalues --   -0.09740  -0.03191  -0.03151  -0.02656  -0.02078
 Alpha virt. eigenvalues --   -0.01576  -0.01431  -0.00200   0.00063   0.00628
 Alpha virt. eigenvalues --    0.01324   0.01617   0.02007   0.02249   0.02646

 Mulliken charges:
               1
     1  C   -0.474897
     2  C   -0.332465
     3  C   -0.437257
     4  C    0.514350
     5  C    0.178430
     6  S   -0.424906
     7  C    0.339761
     8  C    0.194652
     9  N    0.746027
    10  S   -0.697861
    11  C    0.803927
    12  C    0.128137
    13  N    0.676676
    14  C   -0.554086
    15  C   -0.083509
    16  C   -0.532791
    17  C   -0.380997
    18  C   -0.438833
    19  C   -0.431210
    20  C   -0.564261
    21  C   -0.276956
    22  C   -0.590376
    23  C   -0.717246
    24  C   -0.642979
    25  C   -0.744527
    26  H    0.280864
    27  H    0.271803
    28  H    0.270327
    29  H    0.274635
    30  H    0.267663
    31  H    0.269420
    32  H    0.277210
    33  H    0.279004
    34  H    0.269185
    35  H    0.269272
    36  H    0.284160
    37  H    0.271683
    38  H    0.272734
    39  H    0.266532
    40  H    0.270282
    41  H    0.271215
    42  H    0.274989
    43  H    0.280678
    44  H    0.270354
    45  H    0.276248
    46  H    0.274937
 Sum of Mulliken charges =   1.00000

 Dipole moment (field-independent basis, Debye):
    X=              1.2142    Y=              0.3420    Z=              1.2740  Tot=              1.7929
 Quadrupole moment (field-independent basis, Debye-Ang):
   XX=            -54.2110   YY=           -126.5143   ZZ=           -167.8872
   XY=             15.6801   XZ=              1.6617   YZ=              0.9586

 Normal termination of Gaussian 16 at Fri Nov  3 13:13:49 2023.
