 Gaussian 16, Revision C.02,
 Gaussian 16:  ES64L-G16RevC.02  7-Dec-2021

 ------------------------------------------------------------
 # td=(nstates=150) b3lyp/6-311+g* scrf(smd, solvent=ethanol)
 ------------------------------------------------------------

 ---
 B-1
 ---
 Symbolic Z-matrix:
 Charge =  0 Multiplicity = 1

                         Standard orientation:
 ---------------------------------------------------------------------
 Center     Atomic      Atomic             Coordinates (Angstroms)
 Number     Number       Type             X           Y           Z
 ---------------------------------------------------------------------
      1          6           0       13.193247    1.965180    0.357514
      2          6           0       14.150234    1.366297   -0.666837
      3          6           0       14.197930   -0.145886   -0.469985
      4          6           0       12.839886   -0.781119   -0.265942
      5          6           0       11.699193   -0.069117   -0.020535
      6          6           0       11.734254    1.463294    0.197940
      7          6           0       10.434640   -0.808638    0.027915
      8          6           0        9.147698   -0.368486    0.051934
      9          6           0        7.970978   -1.218813    0.064023
     10          6           0        6.738479   -0.618773    0.069992
     11          6           0        5.445845   -1.238015    0.078209
     12          6           0        4.280328   -0.525977    0.081210
     13          6           0        2.942601   -1.063627    0.086009
     14          6           0        1.885522   -0.185039    0.086900
     15          6           0        0.488362   -0.479870    0.088382
     16          6           0       -0.488364    0.479879    0.088381
     17          6           0       -1.885523    0.185049    0.086901
     18          6           0       -2.942603    1.063636    0.086010
     19          6           0       -4.280330    0.525984    0.081210
     20          6           0       -5.445847    1.238022    0.078205
     21          6           0       -6.738480    0.618778    0.069986
     22          6           0       -7.970980    1.218816    0.064016
     23          6           0       -9.147699    0.368486    0.051926
     24          6           0      -10.434641    0.808636    0.027911
     25          6           0      -11.699193    0.069112   -0.020539
     26          6           0      -11.734248   -1.463299    0.197935
     27          6           0       11.014600    1.853868    1.513234
     28          6           0       11.087577    2.209256   -0.996377
     29          6           0       12.878927   -2.293643   -0.398885
     30          6           0      -13.193238   -1.965187    0.357525
     31          6           0      -14.150237   -1.366308   -0.666817
     32          6           0      -14.197934    0.145875   -0.469969
     33          6           0      -12.839889    0.781111   -0.265939
     34          6           0      -11.014576   -1.853870    1.513220
     35          6           0      -11.087582   -2.209257   -0.996389
     36          6           0      -12.878932    2.293635   -0.398883
     37          6           0       -8.156563    2.717180    0.068498
     38          6           0       -2.769507    2.564242    0.088788
     39          6           0        2.769504   -2.564233    0.088790
     40          6           0        8.156557   -2.717177    0.068503
     41          1           0       13.552240    1.704444    1.363722
     42          1           0       13.191791    3.061587    0.302962
     43          1           0       15.153148    1.798268   -0.563053
     44          1           0       13.813091    1.597755   -1.685187
     45          1           0       14.836732   -0.392637    0.395545
     46          1           0       14.685170   -0.631298   -1.328645
     47          1           0       10.553209   -1.886254   -0.000126
     48          1           0        8.931571    0.694424    0.048253
     49          1           0        6.727188    0.472294    0.066595
     50          1           0        5.394190   -2.323329    0.080545
     51          1           0        4.354073    0.562407    0.078511
     52          1           0        2.136434    0.876729    0.085263
     53          1           0        0.172471   -1.521700    0.088524
     54          1           0       -0.172472    1.521709    0.088521
     55          1           0       -2.136435   -0.876720    0.085267
     56          1           0       -4.354074   -0.562400    0.078514
     57          1           0       -5.394193    2.323335    0.080538
     58          1           0       -6.727188   -0.472289    0.066588
     59          1           0       -8.931568   -0.694423    0.048240
     60          1           0      -10.553213    1.886252   -0.000123
     61          1           0       11.416560    1.280584    2.356412
     62          1           0       11.183965    2.918133    1.720013
     63          1           0        9.936160    1.690871    1.488587
     64          1           0       10.062275    1.884980   -1.187807
     65          1           0       11.067226    3.288779   -0.800274
     66          1           0       11.653135    2.045583   -1.919919
     67          1           0       13.913764   -2.648960   -0.350635
     68          1           0       12.324510   -2.809583    0.392139
     69          1           0       12.468777   -2.633235   -1.360075
     70          1           0      -13.191780   -3.061594    0.302976
     71          1           0      -13.552222   -1.704450    1.363737
     72          1           0      -15.153149   -1.798281   -0.563022
     73          1           0      -13.813104   -1.597768   -1.685170
     74          1           0      -14.836727    0.392627    0.395567
     75          1           0      -14.685183    0.631285   -1.328625
     76          1           0      -11.183932   -2.918136    1.719999
     77          1           0       -9.936137   -1.690867    1.488558
     78          1           0      -11.416527   -1.280589    2.356403
     79          1           0      -10.062283   -1.884978   -1.187830
     80          1           0      -11.067226   -3.288781   -0.800288
     81          1           0      -11.653150   -2.045585   -1.919926
     82          1           0      -13.913771    2.648951   -0.350639
     83          1           0      -12.324521    2.809577    0.392144
     84          1           0      -12.468777    2.633229   -1.360071
     85          1           0       -8.744087    3.036457    0.938730
     86          1           0       -7.209146    3.257946    0.093047
     87          1           0       -8.704221    3.047232   -0.823677
     88          1           0       -3.248036    3.011075    0.969534
     89          1           0       -1.721470    2.868026    0.092705
     90          1           0       -3.242385    3.013831   -0.793611
     91          1           0        3.242396   -3.013825   -0.793600
     92          1           0        3.248019   -3.011063    0.969546
     93          1           0        1.721466   -2.868016    0.092692
     94          1           0        7.209140   -3.257941    0.093061
     95          1           0        8.704208   -3.047230   -0.823677
     96          1           0        8.744089   -3.036455    0.938730
 ---------------------------------------------------------------------

 SCF Done:  E(RB3LYP) =  -1558.26024495     A.U. after   14 cycles

 Excitation energies and oscillator strengths:

 Excited State   1:      Singlet-A      1.9294 eV  642.61 nm  f=4.3119  <S**2>=0.000
     148 -> 149        0.70771
 This state for optimization and/or second-order correction.
 Total Energy, E(TD-HF/TD-DFT) =  -1558.18934114
 Copying the excited state density for this state as the 1-particle RhoCI density.

 Excited State   2:      Singlet-A      2.4622 eV  503.55 nm  f=0.0001  <S**2>=0.000
     147 -> 149        0.61450
     148 -> 150        0.33867

 Excited State   3:      Singlet-A      2.9890 eV  414.80 nm  f=0.0023  <S**2>=0.000
     147 -> 149       -0.34471
     148 -> 150        0.61538

 Excited State   4:      Singlet-A      3.1079 eV  398.93 nm  f=0.0903  <S**2>=0.000
     146 -> 149        0.63905
     147 -> 150       -0.10776
     148 -> 151       -0.27109

 Excited State   5:      Singlet-A      3.4389 eV  360.54 nm  f=0.1883  <S**2>=0.000
     147 -> 150        0.58149
     148 -> 151       -0.38878

 Excited State   6:      Singlet-A      3.7438 eV  331.17 nm  f=0.0000  <S**2>=0.000
     145 -> 149        0.65795
     148 -> 152        0.20275

 Excited State   7:      Singlet-A      3.8011 eV  326.18 nm  f=0.3558  <S**2>=0.000
     144 -> 149       -0.18157
     146 -> 149        0.28005
     147 -> 150        0.36815
     148 -> 151        0.50066

 Excited State   8:      Singlet-A      4.0166 eV  308.68 nm  f=0.0001  <S**2>=0.000
     146 -> 150        0.62353
     147 -> 151        0.24835
     148 -> 152       -0.17910

 Excited State   9:      Singlet-A      4.2175 eV  293.98 nm  f=0.0010  <S**2>=0.000
     146 -> 150       -0.11720
     147 -> 151        0.56976
     148 -> 152        0.38865

 Excited State  10:      Singlet-A      4.2409 eV  292.35 nm  f=0.0573  <S**2>=0.000
     144 -> 149        0.64194
     148 -> 151        0.13925
     148 -> 154        0.10478
     148 -> 161        0.15817

 Excited State  11:      Singlet-A      4.2597 eV  291.07 nm  f=0.0041  <S**2>=0.000
     147 -> 154        0.12638
     148 -> 152       -0.10128
     148 -> 153        0.62751
     148 -> 155        0.24875

 Excited State  12:      Singlet-A      4.3198 eV  287.01 nm  f=0.0038  <S**2>=0.000
     147 -> 153        0.16874
     148 -> 154        0.63674
     148 -> 156        0.18686
     148 -> 157        0.11189

 Excited State  13:      Singlet-A      4.4601 eV  277.98 nm  f=0.0002  <S**2>=0.000
     146 -> 150        0.11389
     147 -> 151       -0.12473
     147 -> 154       -0.12432
     148 -> 152        0.26284
     148 -> 153       -0.14005
     148 -> 155        0.54822
     148 -> 158       -0.12920
     148 -> 160       -0.14210

 Excited State  14:      Singlet-A      4.5324 eV  273.55 nm  f=0.0051  <S**2>=0.000
     143 -> 149        0.28000
     145 -> 149       -0.18923
     146 -> 150        0.22875
     147 -> 151       -0.23421
     148 -> 152        0.37573
     148 -> 153        0.20218
     148 -> 155       -0.23976
     148 -> 158        0.12577

 Excited State  15:      Singlet-A      4.5383 eV  273.19 nm  f=0.0007  <S**2>=0.000
     148 -> 156        0.52045
     148 -> 157       -0.39220
     148 -> 159        0.22338

 Excited State  16:      Singlet-A      4.6007 eV  269.49 nm  f=0.0002  <S**2>=0.000
     145 -> 150       -0.15704
     147 -> 155        0.12764
     148 -> 154       -0.18408
     148 -> 156        0.34406
     148 -> 157        0.51324
     148 -> 165       -0.14783

 Excited State  17:      Singlet-A      4.6348 eV  267.51 nm  f=0.0027  <S**2>=0.000
     145 -> 150        0.59172
     147 -> 152       -0.17689
     148 -> 157        0.10646
     148 -> 159        0.10098
     148 -> 161        0.22272

 Excited State  18:      Singlet-A      4.6474 eV  266.78 nm  f=0.0041  <S**2>=0.000
     147 -> 156        0.10826
     148 -> 155        0.15543
     148 -> 158        0.63665
     148 -> 164       -0.15139

 Excited State  19:      Singlet-A      4.7602 eV  260.46 nm  f=0.0024  <S**2>=0.000
     147 -> 158       -0.13974
     148 -> 156       -0.18838
     148 -> 159        0.62977
     148 -> 166       -0.11351

 Excited State  20:      Singlet-A      4.7708 eV  259.88 nm  f=0.0002  <S**2>=0.000
     143 -> 149       -0.11135
     147 -> 157        0.13075
     148 -> 155        0.15770
     148 -> 160        0.63340

 Excited State  21:      Singlet-A      4.8504 eV  255.62 nm  f=0.1350  <S**2>=0.000
     145 -> 150       -0.18411
     146 -> 151        0.60854
     148 -> 161        0.28499

 Excited State  22:      Singlet-A      4.8666 eV  254.76 nm  f=0.0010  <S**2>=0.000
     143 -> 149        0.56529
     146 -> 150       -0.11873
     147 -> 151        0.13222
     148 -> 152       -0.20119
     148 -> 162        0.11300
     148 -> 167        0.12611
     148 -> 169       -0.13142

 Excited State  23:      Singlet-A      4.9289 eV  251.55 nm  f=0.0011  <S**2>=0.000
     146 -> 151       -0.12310
     147 -> 152        0.21230
     147 -> 160       -0.12503
     148 -> 157       -0.10213
     148 -> 163        0.49233
     148 -> 165       -0.32820

 Excited State  24:      Singlet-A      4.9403 eV  250.96 nm  f=0.0000  <S**2>=0.000
     147 -> 163       -0.13978
     148 -> 162        0.63948
     148 -> 164       -0.11002
     148 -> 169        0.11509

 Excited State  25:      Singlet-A      4.9435 eV  250.80 nm  f=0.0122  <S**2>=0.000
     146 -> 151       -0.13639
     147 -> 152        0.40320
     147 -> 162        0.11542
     148 -> 161        0.37611
     148 -> 163       -0.34944

 Excited State  26:      Singlet-A      4.9602 eV  249.96 nm  f=0.0016  <S**2>=0.000
     141 -> 150        0.15933
     142 -> 149        0.65717
     148 -> 165        0.13407

 Excited State  27:      Singlet-A      4.9684 eV  249.55 nm  f=0.0001  <S**2>=0.000
     141 -> 149        0.67284
     142 -> 150        0.16424

 Excited State  28:      Singlet-A      4.9717 eV  249.38 nm  f=0.0001  <S**2>=0.000
     147 -> 159       -0.12931
     148 -> 158        0.13958
     148 -> 162        0.12170
     148 -> 164        0.64249

 Excited State  29:      Singlet-A      4.9753 eV  249.20 nm  f=0.0024  <S**2>=0.000
     142 -> 149       -0.11606
     147 -> 152        0.27062
     147 -> 153        0.12505
     148 -> 161        0.13971
     148 -> 163        0.26295
     148 -> 165        0.50386

 Excited State  30:      Singlet-A      5.0110 eV  247.42 nm  f=0.0014  <S**2>=0.000
     146 -> 154       -0.11377
     147 -> 153        0.60240
     147 -> 155        0.11170
     148 -> 154       -0.14603
     148 -> 161        0.15114
     148 -> 165       -0.17439

 Excited State  31:      Singlet-A      5.0373 eV  246.13 nm  f=0.0003  <S**2>=0.000
     146 -> 153       -0.13826
     147 -> 154        0.63119
     148 -> 153       -0.15186
     148 -> 160       -0.11494

 Excited State  32:      Singlet-A      5.1106 eV  242.60 nm  f=0.0000  <S**2>=0.000
     143 -> 149        0.13429
     144 -> 150        0.55700
     147 -> 161       -0.13540
     148 -> 167       -0.28672
     148 -> 169        0.17542

 Excited State  33:      Singlet-A      5.1391 eV  241.26 nm  f=0.0309  <S**2>=0.000
     140 -> 149        0.26786
     144 -> 149        0.12469
     145 -> 150        0.21374
     146 -> 151        0.20338
     147 -> 152        0.32737
     147 -> 153        0.13078
     147 -> 155        0.19336
     148 -> 161       -0.29148
     148 -> 171       -0.14164
     148 -> 173       -0.13528

 Excited State  34:      Singlet-A      5.1563 eV  240.45 nm  f=0.0003  <S**2>=0.000
     147 -> 155        0.10098
     147 -> 164       -0.15085
     148 -> 159        0.10776
     148 -> 166        0.64522

 Excited State  35:      Singlet-A      5.1887 eV  238.95 nm  f=0.0002  <S**2>=0.000
     144 -> 150        0.24086
     148 -> 162       -0.11056
     148 -> 167        0.52948
     148 -> 168       -0.25260
     148 -> 169        0.16532

 Excited State  36:      Singlet-A      5.2012 eV  238.37 nm  f=0.0048  <S**2>=0.000
     140 -> 149       -0.12582
     147 -> 153       -0.10317
     147 -> 155        0.60811
     147 -> 158       -0.10799

 Excited State  37:      Singlet-A      5.2440 eV  236.43 nm  f=0.0048  <S**2>=0.000
     140 -> 149        0.31969
     148 -> 170       -0.16026
     148 -> 171        0.50343
     148 -> 173        0.26288

 Excited State  38:      Singlet-A      5.2665 eV  235.42 nm  f=0.0000  <S**2>=0.000
     147 -> 156        0.56438
     148 -> 155       -0.10182
     148 -> 168        0.24959
     148 -> 172        0.14056

 Excited State  39:      Singlet-A      5.2927 eV  234.25 nm  f=0.0001  <S**2>=0.000
     147 -> 156       -0.29885
     147 -> 157        0.39980
     148 -> 158        0.10350
     148 -> 167        0.14217
     148 -> 168        0.37594
     148 -> 169        0.14589

 Excited State  40:      Singlet-A      5.3019 eV  233.85 nm  f=0.0002  <S**2>=0.000
     147 -> 157        0.36368
     147 -> 170       -0.12081
     148 -> 168       -0.31236
     148 -> 169       -0.30450
     148 -> 172        0.28617
     148 -> 174       -0.11697

 Excited State  41:      Singlet-A      5.3171 eV  233.18 nm  f=0.0010  <S**2>=0.000
     147 -> 168        0.11623
     148 -> 170        0.61881
     148 -> 171        0.14324
     148 -> 173        0.13405

 Excited State  42:      Singlet-A      5.3303 eV  232.60 nm  f=0.0199  <S**2>=0.000
     140 -> 149       -0.31654
     145 -> 150        0.10294
     146 -> 151        0.11148
     147 -> 152        0.14272
     147 -> 158        0.16606
     148 -> 161       -0.18386
     148 -> 170       -0.11938
     148 -> 173        0.45499
     148 -> 181        0.10947

 Excited State  43:      Singlet-A      5.3327 eV  232.50 nm  f=0.0000  <S**2>=0.000
     139 -> 149        0.26520
     143 -> 149        0.12173
     144 -> 150       -0.24732
     145 -> 151       -0.17361
     147 -> 157        0.11848
     148 -> 162       -0.10062
     148 -> 167       -0.10246
     148 -> 168       -0.22652
     148 -> 169        0.41763
     148 -> 172        0.10802

 Excited State  44:      Singlet-A      5.3587 eV  231.37 nm  f=0.0038  <S**2>=0.000
     147 -> 155        0.10904
     147 -> 158        0.61233
     148 -> 173       -0.17785

 Excited State  45:      Singlet-A      5.3725 eV  230.77 nm  f=0.0005  <S**2>=0.000
     139 -> 149        0.52930
     145 -> 151        0.15497
     147 -> 157       -0.21831
     148 -> 167        0.12112
     148 -> 169       -0.13489
     148 -> 172        0.23489

 Excited State  46:      Singlet-A      5.3808 eV  230.42 nm  f=0.0000  <S**2>=0.000
     139 -> 149       -0.30198
     145 -> 151       -0.14140
     147 -> 156       -0.10141
     147 -> 157       -0.28528
     148 -> 172        0.47521
     148 -> 174       -0.11107

 Excited State  47:      Singlet-A      5.3819 eV  230.37 nm  f=0.0047  <S**2>=0.000
     138 -> 149        0.40680
     139 -> 150       -0.11366
     140 -> 149        0.36513
     148 -> 171       -0.26512
     148 -> 173        0.22845

 Excited State  48:      Singlet-A      5.4319 eV  228.25 nm  f=0.0003  <S**2>=0.000
     145 -> 151        0.47147
     146 -> 152        0.11183
     147 -> 159        0.27298
     147 -> 161        0.10371
     148 -> 169        0.16067
     148 -> 174       -0.29229

 Excited State  49:      Singlet-A      5.4426 eV  227.80 nm  f=0.0014  <S**2>=0.000
     145 -> 151        0.31732
     147 -> 159       -0.21666
     147 -> 161        0.13324
     147 -> 166        0.10475
     148 -> 164       -0.10336
     148 -> 172        0.16129
     148 -> 174        0.43894
     148 -> 176       -0.16479

 Excited State  50:      Singlet-A      5.4435 eV  227.77 nm  f=0.0078  <S**2>=0.000
     138 -> 149        0.53289
     140 -> 149       -0.18160
     148 -> 171        0.24334
     148 -> 173       -0.19806

 Excited State  51:      Singlet-A      5.4668 eV  226.79 nm  f=0.0002  <S**2>=0.000
     147 -> 160        0.54737
     147 -> 172        0.12244
     148 -> 165       -0.16755
     148 -> 175       -0.32489

 Excited State  52:      Singlet-A      5.4775 eV  226.35 nm  f=0.0013  <S**2>=0.000
     137 -> 149        0.13821
     147 -> 159        0.51783
     148 -> 174        0.28114
     148 -> 179        0.21598

 Excited State  53:      Singlet-A      5.4882 eV  225.91 nm  f=0.0000  <S**2>=0.000
     137 -> 149        0.61251
     146 -> 152        0.11062
     147 -> 161        0.13375
     148 -> 167       -0.10539

 Excited State  54:      Singlet-A      5.5283 eV  224.27 nm  f=0.0018  <S**2>=0.000
     147 -> 160        0.33082
     148 -> 175        0.55698
     148 -> 177       -0.12451

 Excited State  55:      Singlet-A      5.5421 eV  223.71 nm  f=0.0007  <S**2>=0.000
     146 -> 152        0.15328
     147 -> 159        0.14546
     147 -> 163       -0.10060
     147 -> 177        0.10669
     148 -> 174        0.20022
     148 -> 176        0.54082
     148 -> 179       -0.22014

 Excited State  56:      Singlet-A      5.5466 eV  223.53 nm  f=0.0187  <S**2>=0.000
     147 -> 160        0.11135
     147 -> 162        0.10142
     147 -> 176        0.11069
     148 -> 175        0.10665
     148 -> 177        0.60217
     148 -> 181       -0.22386

 Excited State  57:      Singlet-A      5.5927 eV  221.69 nm  f=0.0003  <S**2>=0.000
     147 -> 159       -0.12050
     147 -> 161        0.11350
     147 -> 165       -0.11233
     148 -> 174       -0.12492
     148 -> 176        0.25595
     148 -> 179        0.55021

 Excited State  58:      Singlet-A      5.6064 eV  221.15 nm  f=0.0009  <S**2>=0.000
     147 -> 174        0.13170
     148 -> 166        0.11454
     148 -> 178        0.61713
     148 -> 181       -0.17670
     148 -> 182       -0.11958

 Excited State  59:      Singlet-A      5.6144 eV  220.83 nm  f=0.0002  <S**2>=0.000
     146 -> 152        0.44037
     147 -> 161       -0.41703
     147 -> 163        0.27084

 Excited State  60:      Singlet-A      5.6157 eV  220.78 nm  f=0.0002  <S**2>=0.000
     143 -> 150        0.13691
     147 -> 162        0.35601
     148 -> 173       -0.11579
     148 -> 178        0.11455
     148 -> 181        0.47575

 Excited State  61:      Singlet-A      5.6229 eV  220.50 nm  f=0.0003  <S**2>=0.000
     137 -> 149       -0.15235
     146 -> 152       -0.10813
     147 -> 161        0.28322
     147 -> 163        0.51284
     148 -> 162        0.10005
     148 -> 180       -0.22463

 Excited State  62:      Singlet-A      5.6277 eV  220.31 nm  f=0.0016  <S**2>=0.000
     143 -> 150       -0.19702
     146 -> 163        0.10454
     147 -> 162        0.52850
     148 -> 163        0.10644
     148 -> 177       -0.17335
     148 -> 181       -0.22585

 Excited State  63:      Singlet-A      5.6523 eV  219.35 nm  f=0.0002  <S**2>=0.000
     146 -> 152       -0.16377
     146 -> 153        0.22282
     147 -> 161       -0.15291
     147 -> 163        0.24263
     147 -> 165       -0.15287
     148 -> 179       -0.10193
     148 -> 180        0.48051

 Excited State  64:      Singlet-A      5.6781 eV  218.35 nm  f=0.0024  <S**2>=0.000
     146 -> 153        0.51806
     146 -> 155        0.10460
     147 -> 154        0.11404
     147 -> 161       -0.16905
     148 -> 180       -0.31642

 Excited State  65:      Singlet-A      5.6801 eV  218.28 nm  f=0.0001  <S**2>=0.000
     143 -> 150       -0.10259
     146 -> 154       -0.22824
     147 -> 164        0.54456
     148 -> 166        0.12229
     148 -> 182        0.23749

 Excited State  66:      Singlet-A      5.6883 eV  217.96 nm  f=0.0004  <S**2>=0.000
     146 -> 152       -0.15535
     146 -> 160       -0.11061
     147 -> 165        0.59123
     148 -> 172        0.14436

 Excited State  67:      Singlet-A      5.7137 eV  216.99 nm  f=0.0007  <S**2>=0.000
     145 -> 153        0.12610
     146 -> 154        0.58145
     147 -> 153        0.11988
     147 -> 164        0.27188

 Excited State  68:      Singlet-A      5.7226 eV  216.66 nm  f=0.0017  <S**2>=0.000
     135 -> 149        0.15013
     145 -> 151       -0.17338
     146 -> 152        0.34022
     146 -> 153        0.28295
     147 -> 161        0.24241
     148 -> 176       -0.16513
     148 -> 184        0.10762
     148 -> 185       -0.21617
     148 -> 188        0.10152

 Excited State  69:      Singlet-A      5.7412 eV  215.96 nm  f=0.0002  <S**2>=0.000
     143 -> 150       -0.15885
     146 -> 154        0.14001
     147 -> 164       -0.22941
     147 -> 179       -0.11641
     148 -> 178        0.13745
     148 -> 182        0.57113

 Excited State  70:      Singlet-A      5.7558 eV  215.41 nm  f=0.0088  <S**2>=0.000
     136 -> 149        0.53974
     143 -> 150       -0.36285
     148 -> 182       -0.13782

 Excited State  71:      Singlet-A      5.7908 eV  214.11 nm  f=0.0001  <S**2>=0.000
     135 -> 149        0.66341
     136 -> 150        0.10445

 Excited State  72:      Singlet-A      5.7986 eV  213.82 nm  f=0.0044  <S**2>=0.000
     136 -> 149        0.40231
     143 -> 150        0.40209
     148 -> 177       -0.12945
     148 -> 181       -0.20284
     148 -> 182        0.11424
     148 -> 183        0.17247

 Excited State  73:      Singlet-A      5.8472 eV  212.04 nm  f=0.0000  <S**2>=0.000
     141 -> 149       -0.11732
     141 -> 151       -0.12278
     142 -> 150        0.40397
     146 -> 155        0.44790
     148 -> 184       -0.16684

 Excited State  74:      Singlet-A      5.8477 eV  212.02 nm  f=0.0000  <S**2>=0.000
     141 -> 149       -0.14313
     141 -> 151       -0.14608
     142 -> 150        0.48180
     146 -> 155       -0.34422
     148 -> 184        0.19519

 Excited State  75:      Singlet-A      5.8499 eV  211.94 nm  f=0.0089  <S**2>=0.000
     141 -> 150       -0.27328
     147 -> 167        0.28502
     147 -> 180       -0.11812
     148 -> 183        0.50063

 Excited State  76:      Singlet-A      5.8578 eV  211.66 nm  f=0.0013  <S**2>=0.000
     132 -> 149       -0.11215
     141 -> 150        0.54404
     142 -> 149       -0.15475
     142 -> 151       -0.16016
     143 -> 150       -0.11702
     147 -> 167        0.22036
     147 -> 169       -0.10321
     148 -> 183        0.16576

 Excited State  77:      Singlet-A      5.8614 eV  211.53 nm  f=0.0007  <S**2>=0.000
     146 -> 164        0.11486
     147 -> 166        0.55112
     147 -> 178       -0.12061
     148 -> 174       -0.13441
     148 -> 184       -0.31740
     148 -> 185       -0.12313

 Excited State  78:      Singlet-A      5.8811 eV  210.82 nm  f=0.0001  <S**2>=0.000
     130 -> 149        0.55452
     132 -> 149       -0.36618
     141 -> 150       -0.12875

 Excited State  79:      Singlet-A      5.8927 eV  210.40 nm  f=0.0016  <S**2>=0.000
     146 -> 155        0.27423
     147 -> 166        0.26992
     148 -> 184        0.47534
     148 -> 190       -0.14351

 Excited State  80:      Singlet-A      5.9153 eV  209.60 nm  f=0.0000  <S**2>=0.000
     134 -> 149        0.10699
     143 -> 150       -0.15958
     144 -> 151        0.55833
     147 -> 167       -0.27237
     147 -> 168        0.10066
     148 -> 183        0.12421

 Excited State  81:      Singlet-A      5.9223 eV  209.35 nm  f=0.0010  <S**2>=0.000
     146 -> 152        0.11828
     147 -> 166        0.14002
     147 -> 171       -0.22990
     147 -> 173       -0.10701
     148 -> 180        0.11052
     148 -> 185        0.47267
     148 -> 193        0.19031

 Excited State  82:      Singlet-A      5.9319 eV  209.01 nm  f=0.0000  <S**2>=0.000
     146 -> 156        0.62470
     146 -> 157       -0.12076
     146 -> 159        0.11875

 Excited State  83:      Singlet-A      5.9488 eV  208.42 nm  f=0.0027  <S**2>=0.000
     144 -> 151        0.24246
     147 -> 167        0.34432
     147 -> 168       -0.26938
     147 -> 169        0.37032
     148 -> 183       -0.21519

 Excited State  84:      Singlet-A      5.9545 eV  208.22 nm  f=0.0011  <S**2>=0.000
     147 -> 165        0.16547
     147 -> 175        0.18086
     148 -> 186        0.59801
     148 -> 190       -0.10148
     148 -> 196       -0.10189

 Excited State  85:      Singlet-A      5.9594 eV  208.05 nm  f=0.0084  <S**2>=0.000
     134 -> 149        0.39550
     143 -> 150        0.11193
     147 -> 167        0.26448
     147 -> 169       -0.32299
     148 -> 173        0.12027
     148 -> 183       -0.20337
     148 -> 189       -0.11404

 Excited State  86:      Singlet-A      5.9622 eV  207.95 nm  f=0.0000  <S**2>=0.000
     129 -> 149        0.52579
     131 -> 149       -0.40197
     132 -> 150       -0.11563

 Excited State  87:      Singlet-A      5.9817 eV  207.27 nm  f=0.0003  <S**2>=0.000
     146 -> 157        0.47890
     146 -> 165       -0.10699
     147 -> 160        0.10767
     147 -> 167       -0.11334
     147 -> 168       -0.36598
     147 -> 169       -0.14034

 The electronic state is 1-A.
 Alpha  occ. eigenvalues --  -10.18529 -10.18529 -10.18361 -10.18361 -10.18041
 Alpha  occ. eigenvalues --  -10.18041 -10.17781 -10.17781 -10.17436 -10.17373
 Alpha  occ. eigenvalues --  -10.17188 -10.17188 -10.17144 -10.17144 -10.17057
 Alpha  occ. eigenvalues --  -10.17057 -10.17044 -10.17043 -10.16859 -10.16859
 Alpha  occ. eigenvalues --  -10.16703 -10.16703 -10.16462 -10.16462 -10.16078
 Alpha  occ. eigenvalues --  -10.16078 -10.15845 -10.15845 -10.15775 -10.15775
 Alpha  occ. eigenvalues --  -10.15584 -10.15584 -10.15327 -10.15327 -10.15219
 Alpha  occ. eigenvalues --  -10.15219 -10.14673 -10.14673 -10.14641 -10.14641
 Alpha  occ. eigenvalues --   -0.84882  -0.84879  -0.83968  -0.83432  -0.82461
 Alpha  occ. eigenvalues --   -0.81829  -0.79400  -0.78347  -0.78328  -0.77808
 Alpha  occ. eigenvalues --   -0.77074  -0.75610  -0.74507  -0.72258  -0.71913
 Alpha  occ. eigenvalues --   -0.70347  -0.68759  -0.68741  -0.68209  -0.67985
 Alpha  occ. eigenvalues --   -0.67791  -0.67787  -0.66947  -0.66866  -0.66666
 Alpha  occ. eigenvalues --   -0.63682  -0.61615  -0.60079  -0.58742  -0.57028
 Alpha  occ. eigenvalues --   -0.56003  -0.56002  -0.54988  -0.54584  -0.53496
 Alpha  occ. eigenvalues --   -0.53125  -0.52458  -0.51308  -0.50161  -0.49776
 Alpha  occ. eigenvalues --   -0.48421  -0.47549  -0.47336  -0.46945  -0.46569
 Alpha  occ. eigenvalues --   -0.46079  -0.44833  -0.44467  -0.44129  -0.44017
 Alpha  occ. eigenvalues --   -0.43158  -0.42837  -0.42223  -0.41961  -0.41896
 Alpha  occ. eigenvalues --   -0.41842  -0.41679  -0.41598  -0.41469  -0.41405
 Alpha  occ. eigenvalues --   -0.41347  -0.41329  -0.40065  -0.40028  -0.39880
 Alpha  occ. eigenvalues --   -0.39783  -0.39316  -0.38678  -0.38570  -0.38538
 Alpha  occ. eigenvalues --   -0.38346  -0.38343  -0.37633  -0.37325  -0.37002
 Alpha  occ. eigenvalues --   -0.36499  -0.36410  -0.36311  -0.36115  -0.36009
 Alpha  occ. eigenvalues --   -0.35550  -0.34959  -0.34615  -0.34613  -0.34505
 Alpha  occ. eigenvalues --   -0.34293  -0.34230  -0.34089  -0.33750  -0.33517
 Alpha  occ. eigenvalues --   -0.33359  -0.33345  -0.33255  -0.32685  -0.31567
 Alpha  occ. eigenvalues --   -0.31499  -0.30700  -0.30368  -0.30204  -0.29923
 Alpha  occ. eigenvalues --   -0.28873  -0.28851  -0.28162  -0.25839  -0.24009
 Alpha  occ. eigenvalues --   -0.21651  -0.19214  -0.16761
 Alpha virt. eigenvalues --   -0.09080  -0.05635  -0.02769   0.00180   0.00643
 Alpha virt. eigenvalues --    0.00692   0.01238   0.01476   0.01794   0.01806
 Alpha virt. eigenvalues --    0.02203   0.02293   0.02496   0.02777   0.02805

 Mulliken charges:
               1
     1  C   -0.477355
     2  C   -0.564380
     3  C   -0.774810
     4  C    0.337111
     5  C    0.143303
     6  C    1.301019
     7  C   -0.452489
     8  C   -0.173690
     9  C    0.810143
    10  C   -0.510234
    11  C   -0.383865
    12  C   -0.172131
    13  C    1.150071
    14  C   -0.612535
    15  C   -0.335811
    16  C   -0.335808
    17  C   -0.612533
    18  C    1.150072
    19  C   -0.172131
    20  C   -0.383865
    21  C   -0.510239
    22  C    0.810146
    23  C   -0.173685
    24  C   -0.452491
    25  C    0.143306
    26  C    1.301022
    27  C   -1.098867
    28  C   -1.176834
    29  C   -1.266807
    30  C   -0.477357
    31  C   -0.564380
    32  C   -0.774811
    33  C    0.337112
    34  C   -1.098865
    35  C   -1.176837
    36  C   -1.266813
    37  C   -1.527494
    38  C   -1.595099
    39  C   -1.595099
    40  C   -1.527495
    41  H    0.246256
    42  H    0.241193
    43  H    0.246334
    44  H    0.244836
    45  H    0.284419
    46  H    0.276608
    47  H    0.292181
    48  H    0.225408
    49  H    0.248350
    50  H    0.272695
    51  H    0.244820
    52  H    0.249932
    53  H    0.251338
    54  H    0.251338
    55  H    0.249932
    56  H    0.244821
    57  H    0.272695
    58  H    0.248350
    59  H    0.225408
    60  H    0.292181
    61  H    0.249775
    62  H    0.257683
    63  H    0.257057
    64  H    0.265145
    65  H    0.246483
    66  H    0.238950
    67  H    0.283750
    68  H    0.270615
    69  H    0.291265
    70  H    0.241193
    71  H    0.246255
    72  H    0.246334
    73  H    0.244836
    74  H    0.284419
    75  H    0.276607
    76  H    0.257683
    77  H    0.257056
    78  H    0.249775
    79  H    0.265146
    80  H    0.246483
    81  H    0.238950
    82  H    0.283750
    83  H    0.270615
    84  H    0.291265
    85  H    0.282919
    86  H    0.283280
    87  H    0.283573
    88  H    0.281411
    89  H    0.283406
    90  H    0.281072
    91  H    0.281071
    92  H    0.281412
    93  H    0.283406
    94  H    0.283280
    95  H    0.283573
    96  H    0.282918
 Sum of Mulliken charges =  -0.00000

 Dipole moment (field-independent basis, Debye):
    X=              0.0000    Y=             -0.0000    Z=             -0.5258  Tot=              0.5258
 Quadrupole moment (field-independent basis, Debye-Ang):
   XX=           -155.9731   YY=           -229.7550   ZZ=           -265.9096
   XY=            -15.3446   XZ=             -0.0002   YZ=              0.0000

 Normal termination of Gaussian 16 at Sat Nov  4 23:22:33 2023.
