 Gaussian 16, Revision C.02,
 Gaussian 16:  ES64L-G16RevC.02  7-Dec-2021

 ------------------------------------------------------------
 # td=(nstates=150) b3lyp/6-311+g* scrf(smd, solvent=ethanol)
 ------------------------------------------------------------

 ---
 A-3
 ---
 Symbolic Z-matrix:
 Charge =  1 Multiplicity = 1

                         Standard orientation:
 ---------------------------------------------------------------------
 Center     Atomic      Atomic             Coordinates (Angstroms)
 Number     Number       Type             X           Y           Z
 ---------------------------------------------------------------------
      1          6           0       -2.428041    1.066524   -0.253176
      2          6           0       -1.163701    0.479343   -0.188922
      3          6           0        0.041805    1.173916   -0.256816
      4          6           0        1.286450    0.541332   -0.181046
      5          6           0       -3.632364    0.360929   -0.172103
      6         16           0       -3.731682   -1.381240    0.072853
      7          6           0       -5.492381   -1.316150    0.079346
      8          6           0       -5.937414    0.002523   -0.102460
      9          7           0       -4.878726    0.909623   -0.261587
     10          6           0       -6.386349   -2.371189    0.240698
     11          6           0       -7.751214   -2.085245    0.223608
     12          6           0       -8.201765   -0.770406    0.051330
     13          6           0       -7.306986    0.285734   -0.111525
     14          6           0       -5.109277    2.349928   -0.473641
     15          6           0       -5.164583    3.142776    0.833251
     16          6           0        2.499506    1.229230   -0.203687
     17          6           0        3.822110    0.764058   -0.127091
     18         16           0        5.094002    1.944187    0.172030
     19          6           0        6.326179    0.693711    0.140374
     20          6           0        5.740783   -0.561555   -0.088266
     21          7           0        4.346445   -0.488644   -0.256376
     22          6           0        7.702092    0.835001    0.309547
     23          6           0        8.493059   -0.310930    0.250826
     24          6           0        7.913914   -1.567173    0.028296
     25          6           0        6.538273   -1.709565   -0.142327
     26          6           0        3.573454   -1.678630   -0.651238
     27          6           0        3.111260   -2.522112    0.538719
     28          1           0       -2.480232    2.144966   -0.359543
     29          1           0       -1.101764   -0.604050   -0.075964
     30          1           0        0.014895    2.256753   -0.370616
     31          1           0        1.271155   -0.537990   -0.061902
     32          1           0       -6.030956   -3.387372    0.377927
     33          1           0       -8.467850   -2.890478    0.348789
     34          1           0       -9.267265   -0.563876    0.046694
     35          1           0       -7.675558    1.298131   -0.232690
     36          1           0       -4.320988    2.718242   -1.133807
     37          1           0       -6.043470    2.442277   -1.031819
     38          1           0       -4.221825    3.066705    1.383681
     39          1           0       -5.350379    4.199206    0.614515
     40          1           0       -5.968923    2.780771    1.480961
     41          1           0        2.426074    2.314290   -0.229676
     42          1           0        8.144449    1.810753    0.482525
     43          1           0        9.567045   -0.226720    0.381606
     44          1           0        8.544040   -2.450028   -0.009720
     45          1           0        6.108776   -2.691785   -0.303762
     46          1           0        2.735494   -1.334144   -1.259472
     47          1           0        4.216087   -2.264286   -1.313807
     48          1           0        3.963720   -2.884064    1.121248
     49          1           0        2.464779   -1.951800    1.212975
     50          1           0        2.552692   -3.391803    0.177306
 ---------------------------------------------------------------------

 SCF Done:  E(RB3LYP) =  -1796.32425206     A.U. after   15 cycles

 Excitation energies and oscillator strengths:

 Excited State   1:      Singlet-A      2.2602 eV  548.55 nm  f=2.2784  <S**2>=0.000
     103 ->104         0.70786
 This state for optimization and/or second-order correction.
 Total Energy, E(TD-HF/TD-DFT) =  -1796.24119033
 Copying the excited state density for this state as the 1-particle RhoCI density.

 Excited State   2:      Singlet-A      3.5537 eV  348.89 nm  f=0.0155  <S**2>=0.000
     101 ->104         0.12137
     102 ->104         0.64083
     103 ->105        -0.25934

 Excited State   3:      Singlet-A      3.7044 eV  334.70 nm  f=0.0177  <S**2>=0.000
     101 ->104         0.64617
     103 ->105         0.11824
     103 ->106         0.17439
     103 ->107        -0.14169

 Excited State   4:      Singlet-A      3.7341 eV  332.03 nm  f=0.0128  <S**2>=0.000
     100 ->104         0.65339
     103 ->106        -0.16338
     103 ->107        -0.18305

 Excited State   5:      Singlet-A      3.9374 eV  314.89 nm  f=0.0966  <S**2>=0.000
     100 ->104         0.13832
     101 ->104        -0.16870
     103 ->105        -0.17268
     103 ->106         0.62497
     103 ->107        -0.12256

 Excited State   6:      Singlet-A      3.9450 eV  314.28 nm  f=0.0295  <S**2>=0.000
     100 ->104         0.18498
     101 ->104         0.16518
     103 ->105        -0.27498
     103 ->107         0.57913

 Excited State   7:      Singlet-A      3.9731 eV  312.06 nm  f=0.0324  <S**2>=0.000
     102 ->104         0.20450
     103 ->105         0.45819
     103 ->106         0.12161
     103 ->107         0.19463
     103 ->108        -0.41195

 Excited State   8:      Singlet-A      4.0296 eV  307.68 nm  f=0.0088  <S**2>=0.000
     102 ->104         0.13747
     103 ->105         0.28529
     103 ->106         0.15970
     103 ->107         0.21402
     103 ->108         0.54002
     103 ->109        -0.10458

 Excited State   9:      Singlet-A      4.1211 eV  300.85 nm  f=0.0003  <S**2>=0.000
     103 ->110         0.68731

 Excited State  10:      Singlet-A      4.2645 eV  290.74 nm  f=0.0227  <S**2>=0.000
      99 ->104         0.40273
     103 ->109         0.56087

 Excited State  11:      Singlet-A      4.3906 eV  282.39 nm  f=0.0156  <S**2>=0.000
      99 ->104         0.55870
     103 ->109        -0.38729

 Excited State  12:      Singlet-A      4.5593 eV  271.94 nm  f=0.0074  <S**2>=0.000
     103 ->111         0.63988
     103 ->112        -0.23115

 Excited State  13:      Singlet-A      4.6597 eV  266.08 nm  f=0.0028  <S**2>=0.000
     103 ->111         0.22612
     103 ->112         0.64168

 Excited State  14:      Singlet-A      4.7994 eV  258.33 nm  f=0.0013  <S**2>=0.000
     103 ->113         0.66745
     103 ->114        -0.14996

 Excited State  15:      Singlet-A      4.9144 eV  252.29 nm  f=0.0063  <S**2>=0.000
     103 ->113         0.13986
     103 ->114         0.67378

 Excited State  16:      Singlet-A      5.1101 eV  242.63 nm  f=0.0041  <S**2>=0.000
      98 ->104         0.64092

 Excited State  17:      Singlet-A      5.1566 eV  240.44 nm  f=0.0374  <S**2>=0.000
      99 ->106        -0.11043
     100 ->106         0.11931
     100 ->107         0.16314
     100 ->109        -0.11146
     101 ->106        -0.10714
     101 ->107         0.14315
     101 ->109         0.10475
     102 ->105         0.54209
     102 ->107        -0.14059
     103 ->115        -0.11853

 Excited State  18:      Singlet-A      5.1695 eV  239.84 nm  f=0.0040  <S**2>=0.000
     102 ->105         0.10519
     103 ->115         0.61736
     103 ->116        -0.22529
     103 ->122        -0.11279

 Excited State  19:      Singlet-A      5.2391 eV  236.65 nm  f=0.0059  <S**2>=0.000
     102 ->106        -0.13797
     103 ->115         0.23656
     103 ->116         0.60511

 Excited State  20:      Singlet-A      5.2681 eV  235.35 nm  f=0.0027  <S**2>=0.000
      98 ->104         0.19483
      99 ->105        -0.11689
      99 ->107         0.11212
     100 ->105        -0.11938
     100 ->107        -0.10916
     101 ->105         0.21098
     101 ->107         0.12432
     101 ->109         0.12190
     102 ->106         0.45990
     102 ->109         0.10791
     103 ->116         0.17850
     103 ->118        -0.12752

 Excited State  21:      Singlet-A      5.3174 eV  233.17 nm  f=0.0045  <S**2>=0.000
     103 ->117         0.11839
     103 ->118         0.58116
     103 ->119        -0.29064
     103 ->120         0.12782

 Excited State  22:      Singlet-A      5.3574 eV  231.42 nm  f=0.0027  <S**2>=0.000
      96 ->104         0.16118
      97 ->104         0.19784
     100 ->105        -0.21624
     101 ->105        -0.13593
     102 ->105         0.14773
     102 ->107         0.42767
     103 ->117        -0.11427
     103 ->118         0.11614
     103 ->119         0.22241
     103 ->120        -0.19413

 Excited State  23:      Singlet-A      5.3971 eV  229.72 nm  f=0.0155  <S**2>=0.000
     102 ->107         0.17324
     103 ->117         0.57274
     103 ->118        -0.22071
     103 ->119        -0.16779

 Excited State  24:      Singlet-A      5.4074 eV  229.28 nm  f=0.0052  <S**2>=0.000
      96 ->104         0.17845
      97 ->104        -0.25204
     102 ->107        -0.18004
     103 ->117         0.24364
     103 ->118         0.20805
     103 ->119         0.40067
     103 ->120        -0.21249

 Excited State  25:      Singlet-A      5.4366 eV  228.05 nm  f=0.0283  <S**2>=0.000
      96 ->104         0.46148
      97 ->104        -0.27168
     100 ->106         0.11739
     100 ->107         0.10520
     102 ->109        -0.15072
     103 ->117        -0.16915
     103 ->118        -0.11731
     103 ->119        -0.17686
     103 ->120         0.13450

 Excited State  26:      Singlet-A      5.4647 eV  226.88 nm  f=0.0385  <S**2>=0.000
      96 ->104         0.21977
      97 ->104         0.40016
     100 ->108        -0.28318
     102 ->105        -0.18744
     102 ->107        -0.19424
     102 ->108        -0.15995
     103 ->119        -0.12159
     103 ->120        -0.19526

 Excited State  27:      Singlet-A      5.4728 eV  226.55 nm  f=0.0084  <S**2>=0.000
      96 ->104         0.21803
      97 ->104         0.29086
     100 ->108         0.23376
     102 ->105        -0.10451
     102 ->108         0.18574
     103 ->117         0.10257
     103 ->119         0.21797
     103 ->120         0.40671

 Excited State  28:      Singlet-A      5.4772 eV  226.36 nm  f=0.0078  <S**2>=0.000
      96 ->104         0.13971
     100 ->108         0.37578
     102 ->108         0.28181
     103 ->119        -0.24554
     103 ->120        -0.36150
     103 ->121        -0.11812

 Excited State  29:      Singlet-A      5.5384 eV  223.86 nm  f=0.0013  <S**2>=0.000
     101 ->105         0.10118
     101 ->110         0.49158
     102 ->110         0.36517
     103 ->122        -0.20986

 Excited State  30:      Singlet-A      5.5839 eV  222.04 nm  f=0.0002  <S**2>=0.000
     100 ->108         0.32454
     102 ->108        -0.28091
     103 ->121         0.48584
     103 ->124        -0.12839

 Excited State  31:      Singlet-A      5.5992 eV  221.43 nm  f=0.0069  <S**2>=0.000
      96 ->104        -0.19729
      97 ->104         0.12302
     100 ->105        -0.30895
     100 ->106         0.11645
     101 ->105         0.38742
     101 ->106         0.18217
     101 ->107        -0.11905
     102 ->109        -0.20396
     103 ->122         0.19122

 Excited State  32:      Singlet-A      5.6089 eV  221.05 nm  f=0.0049  <S**2>=0.000
     100 ->105         0.15469
     100 ->108         0.18892
     102 ->108        -0.34679
     102 ->109         0.13342
     103 ->121        -0.21857
     103 ->122         0.40527
     103 ->123         0.11411

 Excited State  33:      Singlet-A      5.6201 eV  220.61 nm  f=0.0058  <S**2>=0.000
     100 ->108        -0.17592
     101 ->110         0.23411
     102 ->108         0.26923
     103 ->121         0.33678
     103 ->122         0.40593

 Excited State  34:      Singlet-A      5.6335 eV  220.08 nm  f=0.0807  <S**2>=0.000
     100 ->105         0.38251
     100 ->106        -0.11897
     101 ->105         0.40784
     102 ->106        -0.10230
     102 ->107         0.25441
     102 ->110        -0.10869
     102 ->111         0.13975

 Excited State  35:      Singlet-A      5.6787 eV  218.33 nm  f=0.1489  <S**2>=0.000
      96 ->104        -0.12203
     100 ->105         0.28385
     100 ->107         0.11922
     101 ->105        -0.13847
     101 ->106         0.24554
     101 ->107        -0.24824
     102 ->106         0.36290
     102 ->110         0.12028
     103 ->122         0.11323

 Excited State  36:      Singlet-A      5.7013 eV  217.47 nm  f=0.0030  <S**2>=0.000
      99 ->110        -0.13465
     101 ->105         0.10220
     101 ->110        -0.40116
     102 ->106        -0.10051
     102 ->110         0.50707

 Excited State  37:      Singlet-A      5.7233 eV  216.63 nm  f=0.1160  <S**2>=0.000
     100 ->106        -0.16838
     100 ->107        -0.18294
     101 ->106         0.20000
     101 ->107        -0.19728
     102 ->105         0.16034
     102 ->107        -0.13338
     103 ->121         0.10278
     103 ->122        -0.12327
     103 ->123         0.46665

 Excited State  38:      Singlet-A      5.7550 eV  215.44 nm  f=0.1263  <S**2>=0.000
      96 ->104        -0.11481
     100 ->105         0.10314
     100 ->106         0.20254
     100 ->107         0.22040
     101 ->106        -0.15422
     101 ->107         0.15267
     102 ->105        -0.16659
     102 ->107         0.14421
     103 ->123         0.45802
     103 ->125         0.12176

 Excited State  39:      Singlet-A      5.7927 eV  214.04 nm  f=0.0010  <S**2>=0.000
     103 ->121         0.14512
     103 ->123        -0.10946
     103 ->124         0.61403
     103 ->126        -0.15300
     103 ->127         0.18331

 Excited State  40:      Singlet-A      5.9139 eV  209.65 nm  f=0.0163  <S**2>=0.000
      95 ->104         0.20679
     103 ->125         0.60136
     103 ->126        -0.14473

 Excited State  41:      Singlet-A      5.9196 eV  209.45 nm  f=0.0013  <S**2>=0.000
     101 ->106         0.47382
     101 ->107         0.47614

 Excited State  42:      Singlet-A      5.9355 eV  208.88 nm  f=0.0647  <S**2>=0.000
      95 ->104         0.12656
      99 ->107         0.13922
     100 ->106         0.20467
     100 ->107         0.14810
     100 ->109         0.13423
     101 ->106         0.16526
     101 ->111        -0.10513
     102 ->106        -0.12060
     102 ->109         0.49255
     102 ->111         0.10323
     103 ->125         0.10491

 Excited State  43:      Singlet-A      5.9512 eV  208.33 nm  f=0.0084  <S**2>=0.000
     100 ->106         0.49666
     100 ->107        -0.45607

 Excited State  44:      Singlet-A      5.9684 eV  207.74 nm  f=0.0020  <S**2>=0.000
     103 ->124         0.19945
     103 ->125         0.14800
     103 ->126         0.56712
     103 ->127        -0.17924

 Excited State  45:      Singlet-A      6.0041 eV  206.50 nm  f=0.0503  <S**2>=0.000
      99 ->105        -0.25646
      99 ->106         0.18252
     100 ->107         0.18908
     100 ->109         0.40802
     100 ->111         0.20320
     102 ->107        -0.11396
     102 ->109        -0.22539
     103 ->126         0.11724

 Excited State  46:      Singlet-A      6.0078 eV  206.37 nm  f=0.0122  <S**2>=0.000
      95 ->104        -0.16807
      99 ->105        -0.17677
      99 ->106        -0.21266
      99 ->107         0.11805
     101 ->107        -0.17410
     101 ->109         0.30532
     101 ->111        -0.26159
     102 ->106        -0.12854
     102 ->107         0.16426
     102 ->111        -0.29389

 Excited State  47:      Singlet-A      6.0422 eV  205.20 nm  f=0.0791  <S**2>=0.000
      95 ->104         0.40761
      99 ->105        -0.10822
      99 ->106        -0.10716
     101 ->109         0.21055
     101 ->111        -0.13501
     102 ->105        -0.13608
     102 ->109        -0.16019
     102 ->111         0.34082
     103 ->125        -0.14333

 Excited State  48:      Singlet-A      6.0907 eV  203.56 nm  f=0.0033  <S**2>=0.000
     103 ->124        -0.13614
     103 ->126         0.21899
     103 ->127         0.59079
     103 ->128         0.21007

 Excited State  49:      Singlet-A      6.0958 eV  203.39 nm  f=0.0016  <S**2>=0.000
      90 ->104         0.24699
      91 ->104        -0.11220
      92 ->104        -0.25290
      94 ->104         0.42724
     103 ->127        -0.11537
     103 ->128         0.34742

 Excited State  50:      Singlet-A      6.0961 eV  203.38 nm  f=0.0052  <S**2>=0.000
      90 ->104        -0.16095
      92 ->104         0.16221
      94 ->104        -0.27802
     103 ->126        -0.13743
     103 ->127        -0.14707
     103 ->128         0.53676

 Excited State  51:      Singlet-A      6.1446 eV  201.78 nm  f=0.0332  <S**2>=0.000
      95 ->104         0.27192
     102 ->111        -0.27853
     102 ->112         0.34403
     103 ->129         0.33454
     103 ->130         0.15584

 Excited State  52:      Singlet-A      6.1758 eV  200.76 nm  f=0.0054  <S**2>=0.000
      95 ->104        -0.21185
     102 ->111         0.18017
     102 ->112        -0.25365
     103 ->129         0.51864
     103 ->132         0.12814

 Excited State  53:      Singlet-A      6.2119 eV  199.59 nm  f=0.0391  <S**2>=0.000
      93 ->104        -0.15149
      95 ->104        -0.22629
     101 ->108         0.17495
     102 ->111         0.24706
     102 ->112         0.48523

 Excited State  54:      Singlet-A      6.2231 eV  199.23 nm  f=0.0031  <S**2>=0.000
     101 ->108         0.66313
     101 ->109        -0.12043
     102 ->112        -0.12434

 Excited State  55:      Singlet-A      6.2737 eV  197.63 nm  f=0.0180  <S**2>=0.000
      99 ->105         0.37946
      99 ->107         0.23743
     100 ->109         0.10760
     101 ->109         0.17951
     102 ->113         0.10746
     103 ->130         0.35659
     103 ->131        -0.12060

 Excited State  56:      Singlet-A      6.2845 eV  197.29 nm  f=0.0125  <S**2>=0.000
     100 ->112         0.13534
     100 ->113         0.10165
     101 ->109         0.11992
     101 ->111         0.23784
     101 ->112        -0.32853
     101 ->113         0.37999
     102 ->112         0.10067
     102 ->113         0.26341

 Excited State  57:      Singlet-A      6.2934 eV  197.01 nm  f=0.0145  <S**2>=0.000
      93 ->104         0.40337
      99 ->105         0.14226
     100 ->112        -0.23516
     100 ->113        -0.16404
     103 ->129         0.12513
     103 ->130        -0.37683

 Excited State  58:      Singlet-A      6.3010 eV  196.77 nm  f=0.0021  <S**2>=0.000
      93 ->104         0.30441
     100 ->112         0.34830
     100 ->113         0.23177
     101 ->111        -0.12904
     101 ->112         0.12113
     101 ->113        -0.16812
     102 ->113         0.26587
     103 ->131        -0.16701

 Excited State  59:      Singlet-A      6.3168 eV  196.28 nm  f=0.0076  <S**2>=0.000
      93 ->104        -0.32207
      95 ->104         0.10381
      99 ->105         0.13194
     101 ->111        -0.12003
     101 ->113        -0.10270
     102 ->113         0.44009
     103 ->129         0.10202
     103 ->130        -0.19243
     103 ->131         0.10803

 Excited State  60:      Singlet-A      6.3194 eV  196.20 nm  f=0.0014  <S**2>=0.000
      99 ->105         0.21966
      99 ->106         0.10006
      99 ->107         0.15770
     100 ->112         0.25372
     100 ->113         0.18059
     101 ->109         0.17896
     102 ->113        -0.20213
     103 ->130        -0.22807
     103 ->131         0.33235

 Excited State  61:      Singlet-A      6.3323 eV  195.80 nm  f=0.0021  <S**2>=0.000
      88 ->104         0.13053
      90 ->104        -0.10171
      91 ->104         0.28842
      92 ->104         0.40773
      93 ->104        -0.16512
      94 ->104         0.38736

 Excited State  62:      Singlet-A      6.3437 eV  195.44 nm  f=0.0098  <S**2>=0.000
      93 ->104         0.19367
      95 ->104        -0.10472
     101 ->109        -0.11406
     101 ->111        -0.11124
     102 ->113         0.12961
     103 ->129        -0.13511
     103 ->130         0.18821
     103 ->131         0.52052

 Excited State  63:      Singlet-A      6.3599 eV  194.95 nm  f=0.0401  <S**2>=0.000
      91 ->104         0.12024
      99 ->106         0.16231
      99 ->107        -0.28865
     101 ->109         0.36729
     101 ->111         0.24804
     101 ->112         0.19148
     101 ->113        -0.22141
     102 ->113         0.11760
     103 ->130         0.10764

 Excited State  64:      Singlet-A      6.3643 eV  194.81 nm  f=0.0010  <S**2>=0.000
     100 ->110         0.68059
     100 ->112        -0.10380

 Excited State  65:      Singlet-A      6.3904 eV  194.02 nm  f=0.0203  <S**2>=0.000
      89 ->104        -0.13787
      91 ->104         0.47801
      92 ->104        -0.36612
      93 ->104        -0.10678
      94 ->104        -0.10058
     101 ->111        -0.10073

 Excited State  66:      Singlet-A      6.4092 eV  193.45 nm  f=0.1990  <S**2>=0.000
      99 ->105         0.10546
      99 ->106        -0.33307
      99 ->107        -0.20884
      99 ->108         0.27555
     100 ->109         0.34910
     100 ->111        -0.18325

 Excited State  67:      Singlet-A      6.4169 eV  193.22 nm  f=0.0302  <S**2>=0.000
      98 ->108         0.13080
      99 ->106         0.12149
      99 ->107         0.22221
      99 ->108         0.45242
     100 ->109        -0.16665
     102 ->108        -0.12282
     102 ->114        -0.25800
     103 ->132         0.21011

 Excited State  68:      Singlet-A      6.4361 eV  192.64 nm  f=0.0011  <S**2>=0.000
      99 ->108        -0.19994
     103 ->129        -0.12280
     103 ->132         0.59589

 Excited State  69:      Singlet-A      6.4640 eV  191.81 nm  f=0.2780  <S**2>=0.000
      90 ->104        -0.14758
      99 ->105         0.10751
      99 ->106         0.36242
      99 ->107        -0.21192
     100 ->111        -0.22396
     101 ->111        -0.33927
     101 ->112        -0.12918
     102 ->114        -0.10560

 Excited State  70:      Singlet-A      6.4707 eV  191.61 nm  f=0.0125  <S**2>=0.000
      99 ->107        -0.13167
      99 ->108         0.24601
     100 ->111         0.20254
     102 ->114         0.53180
     103 ->132         0.12104

 Excited State  71:      Singlet-A      6.4893 eV  191.06 nm  f=0.0565  <S**2>=0.000
      90 ->104         0.12389
      92 ->104         0.10583
      99 ->105         0.15410
      99 ->107        -0.20314
      99 ->108        -0.10477
     100 ->111         0.47085
     101 ->111        -0.13081
     102 ->114        -0.25401

 Excited State  72:      Singlet-A      6.5070 eV  190.54 nm  f=0.0408  <S**2>=0.000
      88 ->104        -0.10664
      90 ->104         0.53941
      91 ->104         0.15432
      92 ->104         0.24936
      94 ->104        -0.16637
      99 ->106         0.11707
     100 ->111        -0.16555

 Excited State  73:      Singlet-A      6.5703 eV  188.70 nm  f=0.0006  <S**2>=0.000
      98 ->110        -0.17473
      99 ->110         0.60637
     102 ->110         0.14461
     102 ->115         0.13172

 Excited State  74:      Singlet-A      6.5952 eV  187.99 nm  f=0.0008  <S**2>=0.000
      83 ->104        -0.10733
      85 ->104         0.19030
      87 ->104         0.17000
      88 ->104         0.37439
      89 ->104        -0.33704
      90 ->104         0.15765
      91 ->104        -0.24625
     103 ->135        -0.16959

 Excited State  75:      Singlet-A      6.6023 eV  187.79 nm  f=0.0032  <S**2>=0.000
     103 ->133         0.49477
     103 ->135        -0.38608
     103 ->137         0.13281

 Excited State  76:      Singlet-A      6.6114 eV  187.53 nm  f=0.0006  <S**2>=0.000
     101 ->114         0.10409
     103 ->132         0.10707
     103 ->133         0.43559
     103 ->135         0.38616
     103 ->136         0.18899
     103 ->137        -0.12032

 Excited State  77:      Singlet-A      6.6315 eV  186.96 nm  f=0.0121  <S**2>=0.000
      99 ->110        -0.13178
     101 ->112         0.24113
     101 ->113         0.18185
     101 ->114         0.46426
     101 ->115         0.28611
     101 ->117         0.12521
     103 ->135        -0.17070

 Excited State  78:      Singlet-A      6.6466 eV  186.54 nm  f=0.0270  <S**2>=0.000
      88 ->104         0.10850
      98 ->105        -0.15662

 The electronic state is 1-A.
 Alpha  occ. eigenvalues --  -88.90318 -88.90141 -14.40253 -14.39912 -10.28666
 Alpha  occ. eigenvalues --  -10.28276 -10.24489 -10.24372 -10.23140 -10.23056
 Alpha  occ. eigenvalues --  -10.22301 -10.22134 -10.20549 -10.20544 -10.19755
 Alpha  occ. eigenvalues --  -10.19686 -10.19507 -10.19403 -10.19165 -10.18983
 Alpha  occ. eigenvalues --  -10.18893 -10.18800 -10.18798 -10.18696 -10.18070
 Alpha  occ. eigenvalues --  -10.16754 -10.16622  -7.98954  -7.98774  -5.95283
 Alpha  occ. eigenvalues --   -5.95112  -5.94911  -5.94739  -5.94448  -5.94254
 Alpha  occ. eigenvalues --   -1.02389  -1.02246  -0.88386  -0.88284  -0.85714
 Alpha  occ. eigenvalues --   -0.85284  -0.83357  -0.80947  -0.78529  -0.77862
 Alpha  occ. eigenvalues --   -0.77460  -0.75801  -0.75320  -0.74454  -0.71229
 Alpha  occ. eigenvalues --   -0.67100  -0.66372  -0.66223  -0.64075  -0.63175
 Alpha  occ. eigenvalues --   -0.61900  -0.60994  -0.58716  -0.57589  -0.56901
 Alpha  occ. eigenvalues --   -0.53351  -0.53239  -0.52957  -0.51955  -0.50281
 Alpha  occ. eigenvalues --   -0.49570  -0.47859  -0.47844  -0.47181  -0.46991
 Alpha  occ. eigenvalues --   -0.46575  -0.46457  -0.45727  -0.44596  -0.44388
 Alpha  occ. eigenvalues --   -0.44069  -0.42724  -0.41691  -0.41018  -0.41010
 Alpha  occ. eigenvalues --   -0.40387  -0.39916  -0.39406  -0.38721  -0.38273
 Alpha  occ. eigenvalues --   -0.37959  -0.37811  -0.37440  -0.37396  -0.36849
 Alpha  occ. eigenvalues --   -0.36330  -0.36020  -0.35939  -0.35805  -0.34604
 Alpha  occ. eigenvalues --   -0.32420  -0.32341  -0.30800  -0.27860  -0.25877
 Alpha  occ. eigenvalues --   -0.25771  -0.24800  -0.19268
 Alpha virt. eigenvalues --   -0.10443  -0.03763  -0.03197  -0.03148  -0.01976
 Alpha virt. eigenvalues --   -0.01832  -0.01483  -0.00902   0.00019   0.00417
 Alpha virt. eigenvalues --    0.00820   0.01526   0.01811   0.02279   0.02400

 Mulliken charges:
               1
     1  C   -0.598936
     2  C   -0.007570
     3  C   -0.472834
     4  C   -0.031633
     5  C    0.241816
     6  S   -0.548776
     7  C    0.942021
     8  C   -0.116171
     9  N    0.695742
    10  C   -0.797471
    11  C   -0.025902
    12  C   -0.582727
    13  C   -0.235560
    14  C   -0.566100
    15  C   -0.729898
    16  C   -0.422811
    17  C    0.332528
    18  S   -0.379597
    19  C    1.260605
    20  C   -0.567758
    21  N    0.759447
    22  C   -1.135943
    23  C   -0.063345
    24  C   -0.621108
    25  C   -0.174321
    26  C   -0.659257
    27  C   -0.763097
    28  H    0.278664
    29  H    0.257012
    30  H    0.257089
    31  H    0.283033
    32  H    0.279575
    33  H    0.267638
    34  H    0.269948
    35  H    0.276746
    36  H    0.268075
    37  H    0.273799
    38  H    0.271620
    39  H    0.266119
    40  H    0.271439
    41  H    0.267481
    42  H    0.285042
    43  H    0.268645
    44  H    0.269889
    45  H    0.282683
    46  H    0.268907
    47  H    0.280240
    48  H    0.275935
    49  H    0.273002
    50  H    0.276077
 Sum of Mulliken charges =   1.00000

 Dipole moment (field-independent basis, Debye):
    X=             -1.0659    Y=              0.0152    Z=             -1.0594  Tot=              1.5029
 Quadrupole moment (field-independent basis, Debye-Ang):
   XX=            -15.4729   YY=           -137.4082   ZZ=           -182.0997
   XY=            -21.5350   XZ=              1.2237   YZ=             -0.9439

 Normal termination of Gaussian 16 at Fri Nov  3 13:22:59 2023.
