 Gaussian 16, Revision C.02,
 Gaussian 16:  ES64L-G16RevC.02  7-Dec-2021

 -----------------------------------------------------------
 # td=(nstates=50) b3lyp/6-311+g* scrf(smd, solvent=ethanol)
 -----------------------------------------------------------

 ---
 B-2
 ---
 Symbolic Z-matrix:
 Charge =  0 Multiplicity = 1

                         Standard orientation:
 ---------------------------------------------------------------------
 Center     Atomic      Atomic             Coordinates (Angstroms)
 Number     Number       Type             X           Y           Z
 ---------------------------------------------------------------------
      1          6           0        4.186043   -0.985243   -0.000113
      2          6           0        2.965678   -0.099955    0.000017
      3          6           0        1.724259   -0.636470   -0.000213
      4          6           0        0.452578    0.059668   -0.000179
      5          6           0       -0.741079   -0.579413   -0.000205
      6          6           0       -2.064372    0.040415   -0.000137
      7          6           0       -3.152878   -0.763225    0.000253
      8          6           0       -4.604173   -0.385851    0.000427
      9          6           0        3.260391    1.378273    0.000567
     10          6           0       -2.133175    1.550261   -0.000541
     11          1           0        4.817179   -0.791217   -0.879673
     12          1           0        4.817098   -0.791647    0.879598
     13          1           0        3.922096   -2.047445   -0.000374
     14          1           0        1.652379   -1.725280   -0.000493
     15          1           0        0.469127    1.146468   -0.000113
     16          1           0       -0.735417   -1.670538   -0.000304
     17          1           0       -2.968126   -1.838635    0.000440
     18          1           0       -4.773466    0.693748    0.001475
     19          1           0       -5.114894   -0.802710   -0.879231
     20          1           0       -5.115042   -0.804470    0.879137
     21          1           0        2.363003    2.000757    0.000075
     22          1           0        3.859006    1.653716    0.880554
     23          1           0        3.860320    1.654180   -0.878355
     24          1           0       -1.627265    1.964044   -0.882102
     25          1           0       -3.158688    1.923675   -0.000452
     26          1           0       -1.626926    1.964596    0.880567
 ---------------------------------------------------------------------

 SCF Done:  E(RB3LYP) =  -390.765269181     A.U. after   13 cycles

 Excitation energies and oscillator strengths:

 Excited State   1:      Singlet-A      4.2062 eV  294.77 nm  f=1.3857  <S**2>=0.000
      38 -> 39         0.70624
 This state for optimization and/or second-order correction.
 Total Energy, E(TD-HF/TD-DFT) =  -390.610695635
 Copying the excited state density for this state as the 1-particle RhoCI density.

 Excited State   2:      Singlet-A      4.8961 eV  253.23 nm  f=0.0013  <S**2>=0.000
      38 -> 40         0.69582

 Excited State   3:      Singlet-A      5.2316 eV  236.99 nm  f=0.0007  <S**2>=0.000
      38 -> 41         0.69602

 Excited State   4:      Singlet-A      5.3582 eV  231.39 nm  f=0.0028  <S**2>=0.000
      38 -> 42         0.69518

 Excited State   5:      Singlet-A      5.4104 eV  229.16 nm  f=0.0136  <S**2>=0.000
      37 -> 39         0.53087
      38 -> 43         0.45941

 Excited State   6:      Singlet-A      5.7633 eV  215.13 nm  f=0.0149  <S**2>=0.000
      38 -> 45         0.68642

 Excited State   7:      Singlet-A      5.7663 eV  215.01 nm  f=0.0003  <S**2>=0.000
      38 -> 44         0.69318

 Excited State   8:      Singlet-A      5.9317 eV  209.02 nm  f=0.0003  <S**2>=0.000
      38 -> 46         0.68906

 Excited State   9:      Singlet-A      6.0221 eV  205.88 nm  f=0.0067  <S**2>=0.000
      37 -> 39        -0.39905
      38 -> 43         0.49318
      38 -> 49         0.15874
      38 -> 50         0.18959

 Excited State  10:      Singlet-A      6.1155 eV  202.74 nm  f=0.0001  <S**2>=0.000
      38 -> 47        -0.37003
      38 -> 48         0.58954

 Excited State  11:      Singlet-A      6.1949 eV  200.14 nm  f=0.0001  <S**2>=0.000
      38 -> 46         0.11916
      38 -> 47         0.58137
      38 -> 48         0.36084

 Excited State  12:      Singlet-A      6.2260 eV  199.14 nm  f=0.0100  <S**2>=0.000
      36 -> 39        -0.10186
      38 -> 49         0.66377
      38 -> 50        -0.15025

 Excited State  13:      Singlet-A      6.4342 eV  192.70 nm  f=0.0000  <S**2>=0.000
      38 -> 51         0.69518

 Excited State  14:      Singlet-A      6.4512 eV  192.19 nm  f=0.0039  <S**2>=0.000
      37 -> 39         0.15330
      38 -> 43        -0.12873
      38 -> 49         0.10222
      38 -> 50         0.65491

 Excited State  15:      Singlet-A      6.5903 eV  188.13 nm  f=0.0001  <S**2>=0.000
      37 -> 40         0.10859
      38 -> 52         0.67915

 Excited State  16:      Singlet-A      6.6548 eV  186.31 nm  f=0.0001  <S**2>=0.000
      35 -> 39         0.69793

 Excited State  17:      Singlet-A      6.7543 eV  183.56 nm  f=0.0000  <S**2>=0.000
      37 -> 40         0.67652
      38 -> 52        -0.12078

 Excited State  18:      Singlet-A      7.0073 eV  176.94 nm  f=0.0110  <S**2>=0.000
      37 -> 41        -0.29042
      38 -> 53         0.62021

 Excited State  19:      Singlet-A      7.0255 eV  176.48 nm  f=0.0017  <S**2>=0.000
      36 -> 39         0.56237
      38 -> 49         0.11516
      38 -> 54        -0.29849
      38 -> 57        -0.24478

 Excited State  20:      Singlet-A      7.0417 eV  176.07 nm  f=0.0001  <S**2>=0.000
      34 -> 39         0.69312

 Excited State  21:      Singlet-A      7.1101 eV  174.38 nm  f=0.0000  <S**2>=0.000
      37 -> 41         0.60569
      37 -> 42         0.11719
      38 -> 53         0.27777
      38 -> 55         0.15667

 Excited State  22:      Singlet-A      7.1402 eV  173.64 nm  f=0.0019  <S**2>=0.000
      36 -> 39         0.23813
      38 -> 54         0.57570
      38 -> 56        -0.23292
      38 -> 57        -0.17654

 Excited State  23:      Singlet-A      7.1670 eV  172.99 nm  f=0.0093  <S**2>=0.000
      37 -> 41        -0.15320
      37 -> 42         0.43611
      38 -> 53        -0.15100
      38 -> 55         0.49648

 Excited State  24:      Singlet-A      7.2301 eV  171.48 nm  f=0.0000  <S**2>=0.000
      37 -> 42         0.52485
      38 -> 55        -0.45815

 Excited State  25:      Singlet-A      7.2977 eV  169.90 nm  f=0.0022  <S**2>=0.000
      38 -> 54         0.20940
      38 -> 56         0.65311

 Excited State  26:      Singlet-A      7.4415 eV  166.61 nm  f=0.0003  <S**2>=0.000
      32 -> 39         0.20901
      33 -> 39         0.65483

 Excited State  27:      Singlet-A      7.4610 eV  166.18 nm  f=0.0133  <S**2>=0.000
      36 -> 39         0.25023
      37 -> 43         0.29214
      38 -> 57         0.57835

 Excited State  28:      Singlet-A      7.5519 eV  164.18 nm  f=0.0008  <S**2>=0.000
      37 -> 44         0.16111
      38 -> 58         0.66732

 Excited State  29:      Singlet-A      7.6053 eV  163.02 nm  f=0.0009  <S**2>=0.000
      37 -> 44         0.65364
      38 -> 58        -0.17719

 Excited State  30:      Singlet-A      7.6104 eV  162.91 nm  f=0.0666  <S**2>=0.000
      37 -> 43         0.37545
      37 -> 45         0.56290
      38 -> 57        -0.15201

 Excited State  31:      Singlet-A      7.6537 eV  161.99 nm  f=0.1779  <S**2>=0.000
      36 -> 39        -0.13847
      37 -> 43         0.50131
      37 -> 45        -0.39680
      38 -> 57        -0.18175

 Excited State  32:      Singlet-A      7.6781 eV  161.48 nm  f=0.0003  <S**2>=0.000
      30 -> 39        -0.20852
      32 -> 39         0.58690
      33 -> 39        -0.21648
      38 -> 59         0.17808

 Excited State  33:      Singlet-A      7.7179 eV  160.65 nm  f=0.0072  <S**2>=0.000
      32 -> 39        -0.17130
      38 -> 59         0.65510

 Excited State  34:      Singlet-A      7.7687 eV  159.59 nm  f=0.0062  <S**2>=0.000
      37 -> 46         0.67990

 Excited State  35:      Singlet-A      7.8741 eV  157.46 nm  f=0.0002  <S**2>=0.000
      38 -> 60         0.67918

 Excited State  36:      Singlet-A      7.9592 eV  155.78 nm  f=0.0043  <S**2>=0.000
      31 -> 39         0.57859
      32 -> 39        -0.11283
      37 -> 47         0.21241
      37 -> 48        -0.26784

 Excited State  37:      Singlet-A      7.9664 eV  155.63 nm  f=0.0003  <S**2>=0.000
      31 -> 39         0.34372
      37 -> 47        -0.30843
      37 -> 48         0.51071

 Excited State  38:      Singlet-A      7.9892 eV  155.19 nm  f=0.0031  <S**2>=0.000
      37 -> 49        -0.14546
      38 -> 61         0.67511

 Excited State  39:      Singlet-A      8.0519 eV  153.98 nm  f=0.0099  <S**2>=0.000
      36 -> 40         0.11062
      37 -> 46         0.10903
      37 -> 47         0.54556
      37 -> 48         0.36252
      38 -> 62        -0.11027

 Excited State  40:      Singlet-A      8.0903 eV  153.25 nm  f=0.0003  <S**2>=0.000
      30 -> 39         0.64768
      31 -> 39         0.10249
      32 -> 39         0.21211

 Excited State  41:      Singlet-A      8.1230 eV  152.63 nm  f=0.0073  <S**2>=0.000
      38 -> 62         0.61854
      38 -> 63         0.29252

 Excited State  42:      Singlet-A      8.1388 eV  152.34 nm  f=0.0052  <S**2>=0.000
      37 -> 49         0.66860
      37 -> 50         0.10576
      38 -> 61         0.13774

 Excited State  43:      Singlet-A      8.2379 eV  150.51 nm  f=0.0002  <S**2>=0.000
      38 -> 62        -0.29778
      38 -> 63         0.61871

 Excited State  44:      Singlet-A      8.2440 eV  150.39 nm  f=0.0386  <S**2>=0.000
      37 -> 49        -0.10374
      37 -> 50         0.68068

 Excited State  45:      Singlet-A      8.2670 eV  149.97 nm  f=0.0255  <S**2>=0.000
      36 -> 40        -0.46596
      37 -> 51         0.49210

 Excited State  46:      Singlet-A      8.3134 eV  149.14 nm  f=0.0000  <S**2>=0.000
      36 -> 40         0.48435
      37 -> 51         0.47794
      38 -> 63         0.11708

 Excited State  47:      Singlet-A      8.3703 eV  148.12 nm  f=0.0614  <S**2>=0.000
      34 -> 41         0.15473
      35 -> 40         0.66529
      38 -> 64        -0.10405

 Excited State  48:      Singlet-A      8.4008 eV  147.59 nm  f=0.0076  <S**2>=0.000
      28 -> 39         0.67949

 Excited State  49:      Singlet-A      8.4574 eV  146.60 nm  f=0.0109  <S**2>=0.000
      37 -> 52         0.67426

 Excited State  50:      Singlet-A      8.5066 eV  145.75 nm  f=0.0403  <S**2>=0.000
      29 -> 39         0.56203
      38 -> 64         0.39404

 The electronic state is 1-A.
 Alpha  occ. eigenvalues --  -10.17931 -10.17685 -10.16797 -10.16710 -10.16637
 Alpha  occ. eigenvalues --  -10.16137 -10.15818 -10.15709 -10.15633 -10.15584
 Alpha  occ. eigenvalues --   -0.82869  -0.80919  -0.76136  -0.71989  -0.68823
 Alpha  occ. eigenvalues --   -0.68101  -0.65142  -0.57084  -0.52843  -0.50957
 Alpha  occ. eigenvalues --   -0.47702  -0.45754  -0.43846  -0.42801  -0.41838
 Alpha  occ. eigenvalues --   -0.41292  -0.39861  -0.38117  -0.37983  -0.37350
 Alpha  occ. eigenvalues --   -0.36983  -0.36246  -0.35508  -0.33814  -0.32604
 Alpha  occ. eigenvalues --   -0.32250  -0.26545  -0.19829
 Alpha virt. eigenvalues --   -0.04038   0.00858   0.01771   0.02534   0.03316
 Alpha virt. eigenvalues --    0.03634   0.04157   0.04250   0.05234   0.05413
 Alpha virt. eigenvalues --    0.05811   0.05999   0.06059   0.06898   0.08385

 Mulliken charges:
               1
     1  C   -1.129245
     2  C    0.641800
     3  C    0.038626
     4  C   -0.379300
     5  C    0.179822
     6  C    1.079602
     7  C   -0.335985
     8  C   -1.340300
     9  C   -1.422674
    10  C   -1.530714
    11  H    0.263168
    12  H    0.263153
    13  H    0.267597
    14  H    0.234917
    15  H    0.258118
    16  H    0.237781
    17  H    0.245586
    18  H    0.261112
    19  H    0.268877
    20  H    0.268792
    21  H    0.274595
    22  H    0.266652
    23  H    0.266597
    24  H    0.274986
    25  H    0.271489
    26  H    0.274948
 Sum of Mulliken charges =  -0.00000

 Dipole moment (field-independent basis, Debye):
    X=              0.1194    Y=              0.5682    Z=              0.0002  Tot=              0.5806
 Quadrupole moment (field-independent basis, Debye-Ang):
   XX=            -53.4416   YY=            -60.0034   ZZ=            -68.4753
   XY=              1.0097   XZ=              0.0012   YZ=              0.0002

 Normal termination of Gaussian 16 at Fri Nov  3 12:55:47 2023.
