 Gaussian 16, Revision C.02,
 Gaussian 16:  ES64L-G16RevC.02  7-Dec-2021

 ------------------------------------------------------------
 # td=(nstates=150) b3lyp/6-311+g* scrf(smd, solvent=ethanol)
 ------------------------------------------------------------

 ---
 A-4
 ---
 Symbolic Z-matrix:
 Charge =  1 Multiplicity = 1

                         Standard orientation:
 ---------------------------------------------------------------------
 Center     Atomic      Atomic             Coordinates (Angstroms)
 Number     Number       Type             X           Y           Z
 ---------------------------------------------------------------------
      1          6           0       -3.663712   -1.051948   -0.111557
      2          6           0       -2.389638   -0.479979   -0.083458
      3          6           0       -1.194967   -1.195004   -0.064041
      4          6           0        0.058349   -0.578322   -0.035613
      5          6           0       -4.855344   -0.323764   -0.124892
      6         16           0       -4.926662    1.436711   -0.060618
      7          6           0       -6.688233    1.402029   -0.083292
      8          6           0       -7.154955    0.079357   -0.139452
      9          7           0       -6.111858   -0.857268   -0.183590
     10          6           0       -7.565153    2.482703   -0.048916
     11          6           0       -8.934956    2.220220   -0.065794
     12          6           0       -9.407072    0.902760   -0.113224
     13          6           0       -8.529361   -0.179533   -0.148820
     14          6           0       -6.366284   -2.306872   -0.248314
     15          6           0       -6.467137   -2.955883    1.133259
     16          6           0        1.282162   -1.246091   -0.016052
     17          6           0        2.511127   -0.582889    0.011938
     18          6           0        3.741215   -1.244345   -0.008435
     19          6           0        5.052439   -0.749020    0.008808
     20         16           0        6.362590   -1.866987   -0.365292
     21          6           0        7.562983   -0.600806   -0.165520
     22          6           0        6.941017    0.612357    0.169846
     23          7           0        5.544832    0.495298    0.283261
     24          6           0        8.946272   -0.695535   -0.302110
     25          6           0        9.708364    0.454142   -0.100703
     26          6           0        9.092982    1.668657    0.228770
     27          6           0        7.709445    1.764545    0.366500
     28          6           0        4.732809    1.623027    0.770139
     29          6           0        4.282282    2.569892   -0.344236
     30          1           0       -3.731831   -2.134826   -0.113428
     31          1           0       -2.310249    0.607987   -0.076294
     32          1           0       -1.237617   -2.283434   -0.072611
     33          1           0        0.079156    0.512977   -0.027655
     34          1           0       -7.192939    3.501353   -0.008437
     35          1           0       -9.638205    3.046285   -0.038434
     36          1           0      -10.476042    0.714855   -0.119701
     37          1           0       -8.914544   -1.192671   -0.174894
     38          1           0       -7.289207   -2.442036   -0.816617
     39          1           0       -5.570728   -2.757498   -0.845647
     40          1           0       -6.666359   -4.026758    1.023381
     41          1           0       -5.536643   -2.835556    1.696522
     42          1           0       -7.280055   -2.514652    1.717995
     43          1           0        1.279871   -2.335280   -0.024232
     44          1           0        2.472390    0.502280    0.013643
     45          1           0        3.691082   -2.326769   -0.105404
     46          1           0        9.416627   -1.639291   -0.558710
     47          1           0       10.787594    0.405440   -0.203502
     48          1           0        9.700309    2.555856    0.377290
     49          1           0        7.251286    2.716142    0.611187
     50          1           0        3.887111    1.202637    1.316886
     51          1           0        5.342782    2.154926    1.505154
     52          1           0        3.668719    2.054906   -1.089954
     53          1           0        3.692500    3.387191    0.083941
     54          1           0        5.141488    3.005946   -0.862588
 ---------------------------------------------------------------------

 SCF Done:  E(RB3LYP) =  -1873.75070991     A.U. after   15 cycles

 Excitation energies and oscillator strengths:

 Excited State   1:      Singlet-A      2.0201 eV  613.75 nm  f=2.8110  <S**2>=0.000
     110 ->111         0.70896
     110 <-111        -0.10831
 This state for optimization and/or second-order correction.
 Total Energy, E(TD-HF/TD-DFT) =  -1873.67647239
 Copying the excited state density for this state as the 1-particle RhoCI density.

 Excited State   2:      Singlet-A      3.1762 eV  390.36 nm  f=0.0067  <S**2>=0.000
     109 ->111         0.62362
     110 ->112        -0.32899

 Excited State   3:      Singlet-A      3.5940 eV  344.97 nm  f=0.0499  <S**2>=0.000
     108 ->111         0.62241
     110 ->112         0.23732
     110 ->113         0.10549
     110 ->114        -0.16131

 Excited State   4:      Singlet-A      3.6331 eV  341.26 nm  f=0.0121  <S**2>=0.000
     107 ->111         0.65504
     110 ->113        -0.19458
     110 ->114        -0.14863

 Excited State   5:      Singlet-A      3.6546 eV  339.26 nm  f=0.0830  <S**2>=0.000
     108 ->111        -0.22184
     109 ->111         0.30803
     110 ->112         0.56613
     110 ->113        -0.10792

 Excited State   6:      Singlet-A      3.8099 eV  325.42 nm  f=0.0462  <S**2>=0.000
     108 ->111         0.22630
     110 ->113        -0.45334
     110 ->114         0.47542

 Excited State   7:      Singlet-A      3.8203 eV  324.54 nm  f=0.0150  <S**2>=0.000
     107 ->111         0.24015
     110 ->113         0.45902
     110 ->114         0.45085
     110 ->116        -0.11249

 Excited State   8:      Singlet-A      3.9093 eV  317.16 nm  f=0.0002  <S**2>=0.000
     110 ->115         0.36316
     110 ->116         0.57179

 Excited State   9:      Singlet-A      4.0072 eV  309.40 nm  f=0.0068  <S**2>=0.000
     106 ->111         0.61923
     110 ->115         0.23843
     110 ->116        -0.19094

 Excited State  10:      Singlet-A      4.0239 eV  308.12 nm  f=0.0002  <S**2>=0.000
     109 ->117         0.11180
     110 ->117         0.68493

 Excited State  11:      Singlet-A      4.1593 eV  298.09 nm  f=0.0166  <S**2>=0.000
     106 ->111        -0.27937
     109 ->112        -0.11575
     110 ->115         0.53263
     110 ->116        -0.32039

 Excited State  12:      Singlet-A      4.3174 eV  287.17 nm  f=0.0023  <S**2>=0.000
     105 ->111         0.15105
     110 ->118         0.67255

 Excited State  13:      Singlet-A      4.5533 eV  272.30 nm  f=0.0003  <S**2>=0.000
     110 ->119         0.64819
     110 ->120         0.20541
     110 ->122        -0.11407

 Excited State  14:      Singlet-A      4.6323 eV  267.65 nm  f=0.0012  <S**2>=0.000
     110 ->119        -0.21517
     110 ->120         0.63971
     110 ->121        -0.10917

 Excited State  15:      Singlet-A      4.6834 eV  264.73 nm  f=0.0007  <S**2>=0.000
     105 ->111         0.58717
     109 ->112        -0.25029
     110 ->118        -0.10973
     110 ->121         0.19343

 Excited State  16:      Singlet-A      4.7037 eV  263.59 nm  f=0.0040  <S**2>=0.000
     105 ->111         0.30727
     109 ->112         0.43320
     110 ->121        -0.41642

 Excited State  17:      Singlet-A      4.7707 eV  259.89 nm  f=0.0108  <S**2>=0.000
     109 ->112         0.38801
     110 ->120         0.12606
     110 ->121         0.49639
     110 ->124         0.19844

 Excited State  18:      Singlet-A      5.0048 eV  247.73 nm  f=0.0003  <S**2>=0.000
     110 ->119         0.10790
     110 ->122         0.57730
     110 ->123        -0.28866
     110 ->124        -0.14965
     110 ->129        -0.12504

 Excited State  19:      Singlet-A      5.0474 eV  245.64 nm  f=0.0015  <S**2>=0.000
     110 ->122         0.34424
     110 ->123         0.56648
     110 ->124         0.14452

 Excited State  20:      Singlet-A      5.0612 eV  244.97 nm  f=0.0005  <S**2>=0.000
     106 ->114         0.12142
     108 ->112         0.31511
     108 ->114         0.10227
     108 ->115         0.11211
     108 ->118        -0.11909
     109 ->113         0.37360
     109 ->114        -0.35570
     110 ->124        -0.19855

 Excited State  21:      Singlet-A      5.0826 eV  243.94 nm  f=0.0022  <S**2>=0.000
     107 ->112        -0.25946
     107 ->115         0.12963
     109 ->113         0.36023
     109 ->114         0.21220
     110 ->123        -0.15336
     110 ->124         0.36862

 Excited State  22:      Singlet-A      5.1202 eV  242.15 nm  f=0.0055  <S**2>=0.000
     102 ->111         0.10098
     107 ->112         0.14851
     109 ->112        -0.13285
     109 ->113        -0.16302
     109 ->114        -0.38190
     110 ->123        -0.11516
     110 ->124         0.41087
     110 ->125        -0.10531

 Excited State  23:      Singlet-A      5.1818 eV  239.27 nm  f=0.0024  <S**2>=0.000
     110 ->123        -0.13813
     110 ->125         0.65488

 Excited State  24:      Singlet-A      5.2327 eV  236.94 nm  f=0.0080  <S**2>=0.000
     110 ->126         0.60161
     110 ->128        -0.21722
     110 ->129         0.16958
     110 ->130        -0.12279

 Excited State  25:      Singlet-A      5.2972 eV  234.06 nm  f=0.0059  <S**2>=0.000
     103 ->111        -0.18655
     107 ->116         0.12690
     109 ->115         0.31172
     109 ->116         0.32908
     110 ->126         0.14144
     110 ->127        -0.12922
     110 ->128         0.31775
     110 ->130         0.10607

 Excited State  26:      Singlet-A      5.2991 eV  233.97 nm  f=0.0164  <S**2>=0.000
     103 ->111         0.24043
     104 ->111         0.46323
     107 ->112        -0.13120
     108 ->112         0.13753
     108 ->114        -0.11862
     109 ->115        -0.14422
     109 ->116         0.12240
     110 ->127         0.20126
     110 ->128         0.21890

 Excited State  27:      Singlet-A      5.3175 eV  233.16 nm  f=0.0343  <S**2>=0.000
     102 ->111         0.10017
     104 ->111        -0.14409
     107 ->112        -0.27777
     108 ->112        -0.14046
     109 ->114        -0.13718
     109 ->115         0.11671
     109 ->116         0.14032
     110 ->127         0.48357
     110 ->130        -0.16481

 Excited State  28:      Singlet-A      5.3218 eV  232.97 nm  f=0.0407  <S**2>=0.000
     104 ->111        -0.13642
     107 ->112        -0.10812
     108 ->112         0.55424
     109 ->113        -0.23774
     109 ->114         0.20812
     109 ->116         0.10575
     110 ->126        -0.10350

 Excited State  29:      Singlet-A      5.3326 eV  232.50 nm  f=0.0109  <S**2>=0.000
     102 ->111         0.14645
     103 ->111         0.47262
     104 ->111        -0.28450
     107 ->112         0.19828
     107 ->113         0.12160
     109 ->113         0.13165
     109 ->116         0.22961

 Excited State  30:      Singlet-A      5.3352 eV  232.39 nm  f=0.0048  <S**2>=0.000
     102 ->111         0.10684
     104 ->111        -0.18659
     107 ->112         0.14985
     109 ->116        -0.31442
     110 ->126         0.17800
     110 ->127         0.20927
     110 ->128         0.39973

 Excited State  31:      Singlet-A      5.3540 eV  231.57 nm  f=0.0468  <S**2>=0.000
     104 ->111         0.18049
     107 ->112         0.43688
     107 ->113        -0.11313
     109 ->113         0.10302
     109 ->114         0.13402
     109 ->115         0.18908
     110 ->127         0.30934
     110 ->128        -0.17779

 Excited State  32:      Singlet-A      5.3783 eV  230.53 nm  f=0.0059  <S**2>=0.000
     102 ->111        -0.11826
     108 ->117         0.10166
     109 ->117         0.24595
     110 ->126        -0.18124
     110 ->127        -0.10288
     110 ->129         0.49226
     110 ->130        -0.22223

 Excited State  33:      Singlet-A      5.4037 eV  229.44 nm  f=0.0011  <S**2>=0.000
     106 ->117        -0.13312
     108 ->117         0.19929
     109 ->117         0.54380
     110 ->128        -0.16987
     110 ->129        -0.19757
     110 ->130         0.13717
     110 ->132         0.12231

 Excited State  34:      Singlet-A      5.4662 eV  226.82 nm  f=0.0009  <S**2>=0.000
     102 ->111         0.26097
     110 ->128        -0.10139
     110 ->129         0.33057
     110 ->130         0.45445
     110 ->132         0.17887

 Excited State  35:      Singlet-A      5.4806 eV  226.22 nm  f=0.0486  <S**2>=0.000
     102 ->111         0.24811
     103 ->111         0.25908
     104 ->111         0.15803
     106 ->112        -0.22038
     107 ->113        -0.13855
     107 ->114        -0.10014
     108 ->113        -0.14046
     108 ->114         0.19803
     109 ->113        -0.22073
     109 ->115         0.21462
     109 ->116        -0.16787
     109 ->118        -0.13473

 Excited State  36:      Singlet-A      5.5065 eV  225.16 nm  f=0.0103  <S**2>=0.000
     102 ->111         0.36721
     103 ->111        -0.23031
     104 ->111         0.13089
     107 ->113         0.10721
     107 ->116         0.15086
     109 ->113         0.11358
     109 ->115        -0.17395
     109 ->118        -0.21919
     110 ->130        -0.27354

 Excited State  37:      Singlet-A      5.5297 eV  224.21 nm  f=0.0058  <S**2>=0.000
     107 ->115         0.31649
     107 ->116         0.55028
     109 ->115        -0.10452
     109 ->116        -0.18721

 Excited State  38:      Singlet-A      5.5733 eV  222.46 nm  f=0.0041  <S**2>=0.000
     109 ->117        -0.11571
     110 ->128         0.14214
     110 ->130        -0.12548
     110 ->131        -0.17200
     110 ->132         0.58764
     110 ->133        -0.10376

 Excited State  39:      Singlet-A      5.5808 eV  222.16 nm  f=0.0081  <S**2>=0.000
     110 ->130        -0.16572
     110 ->131         0.58429
     110 ->132         0.18084
     110 ->133         0.16776

 Excited State  40:      Singlet-A      5.6109 eV  220.97 nm  f=0.1888  <S**2>=0.000
     102 ->111        -0.28480
     106 ->113        -0.12710
     107 ->113         0.18802
     107 ->114         0.14513
     108 ->113        -0.20484
     108 ->114         0.30103
     109 ->112        -0.12579
     109 ->114         0.18292
     109 ->118        -0.19674
     110 ->130         0.11066
     110 ->131        -0.13976

 Excited State  41:      Singlet-A      5.6259 eV  220.38 nm  f=0.0240  <S**2>=0.000
     106 ->112         0.47330
     109 ->115         0.37571
     109 ->116        -0.23034

 Excited State  42:      Singlet-A      5.6275 eV  220.32 nm  f=0.0003  <S**2>=0.000
     108 ->117         0.64037
     109 ->117        -0.20445

 Excited State  43:      Singlet-A      5.7081 eV  217.21 nm  f=0.0044  <S**2>=0.000
     110 ->131        -0.18135
     110 ->133         0.62136
     110 ->134         0.14129
     110 ->136        -0.12485

 Excited State  44:      Singlet-A      5.7763 eV  214.64 nm  f=0.0534  <S**2>=0.000
     107 ->113         0.15672
     107 ->114         0.11071
     109 ->118         0.13799
     110 ->134         0.57001
     110 ->135         0.21719

 Excited State  45:      Singlet-A      5.8176 eV  213.12 nm  f=0.1319  <S**2>=0.000
     102 ->111         0.12355
     105 ->112         0.10685
     106 ->112        -0.11691
     107 ->113         0.23377
     107 ->114         0.16353
     108 ->114         0.12530
     109 ->118         0.45558
     110 ->134        -0.24685
     110 ->135         0.12274

 Excited State  46:      Singlet-A      5.8298 eV  212.67 nm  f=0.0410  <S**2>=0.000
     106 ->112         0.17751
     106 ->114        -0.17944
     107 ->113        -0.19154
     107 ->114        -0.12106
     107 ->115        -0.11320
     108 ->113        -0.24988
     108 ->114         0.29558
     108 ->115        -0.14464
     108 ->118         0.22432
     109 ->115        -0.12218
     109 ->118         0.18014
     110 ->134         0.14384
     110 ->137        -0.10291

 Excited State  47:      Singlet-A      5.8351 eV  212.48 nm  f=0.0006  <S**2>=0.000
     109 ->118        -0.10651
     110 ->135         0.57026
     110 ->136         0.24317

 Excited State  48:      Singlet-A      5.8560 eV  211.72 nm  f=0.0084  <S**2>=0.000
     105 ->114         0.11901
     106 ->113         0.33438
     107 ->113         0.21834
     107 ->115         0.31491
     107 ->116        -0.16662
     107 ->118         0.17290
     108 ->113        -0.13286
     108 ->115        -0.13281
     108 ->118         0.16110
     109 ->114        -0.13676
     109 ->118        -0.14578

 Excited State  49:      Singlet-A      5.8993 eV  210.17 nm  f=0.0023  <S**2>=0.000
     106 ->114         0.15347
     108 ->118        -0.11089
     110 ->135        -0.19552
     110 ->136         0.45535
     110 ->137        -0.30264

 Excited State  50:      Singlet-A      5.9251 eV  209.25 nm  f=0.0277  <S**2>=0.000
     106 ->112        -0.22539
     106 ->114        -0.26963
     107 ->115        -0.12351
     108 ->115        -0.12036
     108 ->118         0.12841
     109 ->113         0.10384
     109 ->115         0.11988
     109 ->118        -0.12228
     109 ->119         0.14618
     110 ->135        -0.11223
     110 ->136         0.32266
     110 ->137         0.23326

 Excited State  51:      Singlet-A      5.9395 eV  208.75 nm  f=0.0240  <S**2>=0.000
     106 ->112         0.18883
     106 ->114         0.20175
     110 ->134         0.12545
     110 ->137         0.52300
     110 ->138        -0.11048

 Excited State  52:      Singlet-A      5.9526 eV  208.29 nm  f=0.0001  <S**2>=0.000
     108 ->113         0.55249
     108 ->114         0.41652

 Excited State  53:      Singlet-A      5.9705 eV  207.66 nm  f=0.0013  <S**2>=0.000
     100 ->111         0.12526
     109 ->119         0.58587
     109 ->120         0.16540
     110 ->136        -0.15458

 Excited State  54:      Singlet-A      5.9830 eV  207.23 nm  f=0.0002  <S**2>=0.000
     107 ->113        -0.39039
     107 ->114         0.57440

 Excited State  55:      Singlet-A      5.9863 eV  207.11 nm  f=0.0003  <S**2>=0.000
      96 ->111         0.33331
      97 ->111        -0.22260
      98 ->111         0.21868
     100 ->111         0.46671
     101 ->111         0.10144
     109 ->119        -0.18362

 Excited State  56:      Singlet-A      6.0299 eV  205.62 nm  f=0.0007  <S**2>=0.000
     106 ->119        -0.11746
     109 ->119        -0.20071
     109 ->120         0.61990
     109 ->121        -0.12253

 Excited State  57:      Singlet-A      6.1109 eV  202.89 nm  f=0.0031  <S**2>=0.000
     110 ->136        -0.11316
     110 ->137         0.10264
     110 ->138         0.56155
     110 ->139         0.12601
     110 ->140        -0.30015

 Excited State  58:      Singlet-A      6.1183 eV  202.65 nm  f=0.0021  <S**2>=0.000
      95 ->111        -0.11826
      97 ->111        -0.15812
     100 ->111        -0.15139
     101 ->111         0.19161
     109 ->121        -0.26449
     110 ->138         0.24294
     110 ->139        -0.12513
     110 ->140         0.43666

 Excited State  59:      Singlet-A      6.1251 eV  202.42 nm  f=0.0029  <S**2>=0.000
      95 ->111         0.25153
      97 ->111         0.35476
      99 ->111         0.19393
     100 ->111         0.26807
     101 ->111        -0.18234
     110 ->138         0.21683
     110 ->140         0.25815

 Excited State  60:      Singlet-A      6.1463 eV  201.72 nm  f=0.0007  <S**2>=0.000
      97 ->111        -0.14156
     101 ->111        -0.12937
     106 ->115        -0.10107
     106 ->116        -0.16537
     109 ->121         0.42929
     110 ->139         0.27500
     110 ->140         0.27222

 Excited State  61:      Singlet-A      6.1590 eV  201.30 nm  f=0.0023  <S**2>=0.000
     109 ->120        -0.10129
     109 ->121        -0.31655
     110 ->138        -0.11760
     110 ->139         0.56618

 Excited State  62:      Singlet-A      6.1942 eV  200.16 nm  f=0.0030  <S**2>=0.000
      95 ->111         0.13173
      96 ->111        -0.12347
      97 ->111         0.17846
     101 ->111         0.49994
     106 ->115        -0.10536
     106 ->116        -0.20649
     109 ->121         0.10858
     109 ->124         0.13501

 Excited State  63:      Singlet-A      6.2104 eV  199.64 nm  f=0.0312  <S**2>=0.000
      97 ->111        -0.10257
      99 ->111         0.37619
     105 ->116        -0.12460
     106 ->113         0.16498
     106 ->115        -0.18515
     106 ->116        -0.35129
     109 ->116         0.10224
     109 ->121        -0.14802

 Excited State  64:      Singlet-A      6.2249 eV  199.17 nm  f=0.0015  <S**2>=0.000
      98 ->111         0.11599
      99 ->111         0.47027
     100 ->111        -0.11578
     101 ->111         0.18633
     106 ->115         0.14911
     106 ->116         0.22713
     108 ->115        -0.16114
     109 ->121         0.18475

 Excited State  65:      Singlet-A      6.2503 eV  198.37 nm  f=0.2385  <S**2>=0.000
      98 ->111        -0.17557
     105 ->112         0.27385
     106 ->113         0.41369
     106 ->115         0.17305
     106 ->116         0.12968
     107 ->115        -0.18609
     107 ->116         0.10254
     107 ->119        -0.10568
     108 ->115         0.10500
     108 ->116        -0.14732

 Excited State  66:      Singlet-A      6.2564 eV  198.17 nm  f=0.0198  <S**2>=0.000
      99 ->111         0.11271
     101 ->111         0.11844
     106 ->114        -0.18734
     108 ->115         0.55886
     108 ->116         0.24186
     108 ->118         0.12874

 Excited State  67:      Singlet-A      6.2734 eV  197.63 nm  f=0.0298  <S**2>=0.000
      96 ->111         0.11399
      97 ->111         0.12411
      98 ->111         0.40654
      99 ->111        -0.17905
     100 ->111        -0.21376
     106 ->114         0.18936
     107 ->115        -0.12344
     107 ->119        -0.12297
     108 ->116         0.25861

 Excited State  68:      Singlet-A      6.2778 eV  197.50 nm  f=0.0215  <S**2>=0.000
      98 ->111        -0.24442
     100 ->111         0.14345
     106 ->114         0.13917
     108 ->115        -0.12553
     108 ->116         0.51933
     108 ->118        -0.13665
     108 ->120        -0.17279

 Excited State  69:      Singlet-A      6.2862 eV  197.23 nm  f=0.0166  <S**2>=0.000
      98 ->111        -0.21315
     100 ->111         0.12940
     105 ->112        -0.15226
     106 ->114         0.17550
     107 ->119        -0.21723
     107 ->120         0.11205
     108 ->118         0.19089
     108 ->119         0.19124
     108 ->120         0.36632
     110 ->141         0.12047
     110 ->143        -0.15582

 Excited State  70:      Singlet-A      6.2930 eV  197.02 nm  f=0.0374  <S**2>=0.000
     105 ->112        -0.23909
     107 ->119        -0.31351
     107 ->120         0.15265
     108 ->116        -0.10710
     108 ->119        -0.15288
     108 ->120        -0.29288
     110 ->141         0.33256

 Excited State  71:      Singlet-A      6.3037 eV  196.68 nm  f=0.0647  <S**2>=0.000
     106 ->113         0.15892
     107 ->115        -0.15076
     107 ->119         0.35503
     107 ->120        -0.18105
     110 ->141         0.41909
     110 ->143        -0.14619

 Excited State  72:      Singlet-A      6.3244 eV  196.04 nm  f=0.0297  <S**2>=0.000
     105 ->112         0.30546
     106 ->114        -0.21192
     107 ->115         0.17565
     107 ->119        -0.18823
     107 ->120         0.10341
     108 ->115        -0.10797
     108 ->116         0.11999
     108 ->118        -0.24353
     108 ->119         0.11143
     108 ->120         0.17893
     110 ->141         0.20650

 Excited State  73:      Singlet-A      6.3494 eV  195.27 nm  f=0.0124  <S**2>=0.000
     106 ->117        -0.16139
     108 ->118         0.10567
     110 ->140        -0.10955
     110 ->141         0.17812
     110 ->142        -0.34127
     110 ->143         0.45285
     110 ->144         0.10603
     110 ->145         0.12455

 Excited State  74:      Singlet-A      6.3543 eV  195.12 nm  f=0.0048  <S**2>=0.000
      96 ->111         0.11406
     105 ->117        -0.18927
     106 ->117         0.51769
     108 ->120         0.11799
     109 ->117         0.12457
     109 ->122         0.22693
     109 ->123        -0.13526

 Excited State  75:      Singlet-A      6.3605 eV  194.93 nm  f=0.0296  <S**2>=0.000
      96 ->111         0.39957
      97 ->111         0.27654
      98 ->111        -0.20002
     105 ->112        -0.15646
     106 ->114        -0.12126
     106 ->117        -0.19994
     108 ->118        -0.18893
     110 ->143         0.13556

 Excited State  76:      Singlet-A      6.3702 eV  194.63 nm  f=0.0146  <S**2>=0.000
     106 ->114         0.15130

 The electronic state is 1-A.
 Alpha  occ. eigenvalues --  -88.90224 -88.90055 -14.40123 -14.39811 -10.28522
 Alpha  occ. eigenvalues --  -10.28142 -10.24433 -10.24320 -10.23082 -10.22998
 Alpha  occ. eigenvalues --  -10.22234 -10.22092 -10.20356 -10.20345 -10.19711
 Alpha  occ. eigenvalues --  -10.19681 -10.19639 -10.19451 -10.19357 -10.19114
 Alpha  occ. eigenvalues --  -10.18945 -10.18857 -10.18754 -10.18748 -10.18651
 Alpha  occ. eigenvalues --  -10.17921 -10.17890 -10.16713 -10.16596  -7.98858
 Alpha  occ. eigenvalues --   -7.98686  -5.95188  -5.95024  -5.94816  -5.94652
 Alpha  occ. eigenvalues --   -5.94351  -5.94166  -1.02257  -1.02145  -0.88325
 Alpha  occ. eigenvalues --   -0.88224  -0.85546  -0.85327  -0.83726  -0.81960
 Alpha  occ. eigenvalues --   -0.79696  -0.78047  -0.77731  -0.76971  -0.75528
 Alpha  occ. eigenvalues --   -0.75154  -0.73925  -0.70895  -0.67225  -0.66316
 Alpha  occ. eigenvalues --   -0.66193  -0.64182  -0.63373  -0.61978  -0.61213
 Alpha  occ. eigenvalues --   -0.59397  -0.57716  -0.57042  -0.56575  -0.53270
 Alpha  occ. eigenvalues --   -0.53172  -0.53033  -0.51266  -0.50935  -0.49246
 Alpha  occ. eigenvalues --   -0.48027  -0.47769  -0.47668  -0.46967  -0.46865
 Alpha  occ. eigenvalues --   -0.46482  -0.46169  -0.45248  -0.44354  -0.44050
 Alpha  occ. eigenvalues --   -0.43767  -0.42705  -0.41186  -0.41052  -0.40564
 Alpha  occ. eigenvalues --   -0.40452  -0.39813  -0.39557  -0.38702  -0.38440
 Alpha  occ. eigenvalues --   -0.37952  -0.37864  -0.37649  -0.37472  -0.36975
 Alpha  occ. eigenvalues --   -0.36611  -0.36195  -0.36010  -0.35886  -0.35734
 Alpha  occ. eigenvalues --   -0.35435  -0.32669  -0.32336  -0.32171  -0.29426
 Alpha  occ. eigenvalues --   -0.26993  -0.25819  -0.25715  -0.23725  -0.18645
 Alpha virt. eigenvalues --   -0.10898  -0.04825  -0.03164  -0.03140  -0.02007
 Alpha virt. eigenvalues --   -0.01907  -0.01434  -0.01270   0.00121   0.00326
 Alpha virt. eigenvalues --    0.00752   0.01467   0.01666   0.01803   0.02032

 Mulliken charges:
               1
     1  C   -0.497921
     2  C   -0.089365
     3  C   -0.762311
     4  C    0.316115
     5  C    0.349405
     6  S   -0.514384
     7  C    1.056437
     8  C   -0.277087
     9  N    0.704572
    10  C   -0.864586
    11  C    0.036189
    12  C   -0.615469
    13  C   -0.186911
    14  C   -0.539060
    15  C   -0.722098
    16  C   -0.789883
    17  C    0.152665
    18  C   -0.585657
    19  C    0.460324
    20  S   -0.370190
    21  C    1.286208
    22  C   -0.640824
    23  N    0.765659
    24  C   -1.177005
    25  C   -0.088126
    26  C   -0.609739
    27  C   -0.172010
    28  C   -0.658522
    29  C   -0.747374
    30  H    0.277945
    31  H    0.259175
    32  H    0.254250
    33  H    0.263028
    34  H    0.280013
    35  H    0.266886
    36  H    0.269556
    37  H    0.276520
    38  H    0.273259
    39  H    0.269902
    40  H    0.265347
    41  H    0.271612
    42  H    0.271457
    43  H    0.254476
    44  H    0.284805
    45  H    0.266863
    46  H    0.284728
    47  H    0.268285
    48  H    0.269391
    49  H    0.282629
    50  H    0.268537
    51  H    0.279980
    52  H    0.272059
    53  H    0.274730
    54  H    0.275515
 Sum of Mulliken charges =   1.00000

 Dipole moment (field-independent basis, Debye):
    X=             -1.0650    Y=              0.2277    Z=              0.6279  Tot=              1.2571
 Quadrupole moment (field-independent basis, Debye-Ang):
   XX=             33.4736   YY=           -148.5461   ZZ=           -195.6296
   XY=             27.2633   XZ=              4.8909   YZ=              5.1975

 Normal termination of Gaussian 16 at Fri Nov  3 13:29:43 2023.
