 Gaussian 16, Revision C.02,
 Gaussian 16:  ES64L-G16RevC.02  7-Dec-2021

 --------------------------------------------------------------
 # td=(nstates=150) PBE1PBE/def2TZVP scrf(smd, solvent=ethanol)
 --------------------------------------------------------------

 ---
 A-4
 ---
 Symbolic Z-matrix:
 Charge =  1 Multiplicity = 1

                         Standard orientation:
 ---------------------------------------------------------------------
 Center     Atomic      Atomic             Coordinates (Angstroms)
 Number     Number       Type             X           Y           Z
 ---------------------------------------------------------------------
      1          6           0       -3.663712   -1.051948   -0.111557
      2          6           0       -2.389638   -0.479979   -0.083458
      3          6           0       -1.194967   -1.195004   -0.064041
      4          6           0        0.058349   -0.578322   -0.035613
      5          6           0       -4.855344   -0.323764   -0.124892
      6         16           0       -4.926662    1.436711   -0.060618
      7          6           0       -6.688233    1.402029   -0.083292
      8          6           0       -7.154955    0.079357   -0.139452
      9          7           0       -6.111858   -0.857268   -0.183590
     10          6           0       -7.565153    2.482703   -0.048916
     11          6           0       -8.934956    2.220220   -0.065794
     12          6           0       -9.407072    0.902760   -0.113224
     13          6           0       -8.529361   -0.179533   -0.148820
     14          6           0       -6.366284   -2.306872   -0.248314
     15          6           0       -6.467137   -2.955883    1.133259
     16          6           0        1.282162   -1.246091   -0.016052
     17          6           0        2.511127   -0.582889    0.011938
     18          6           0        3.741215   -1.244345   -0.008435
     19          6           0        5.052439   -0.749020    0.008808
     20         16           0        6.362590   -1.866987   -0.365292
     21          6           0        7.562983   -0.600806   -0.165520
     22          6           0        6.941017    0.612357    0.169846
     23          7           0        5.544832    0.495298    0.283261
     24          6           0        8.946272   -0.695535   -0.302110
     25          6           0        9.708364    0.454142   -0.100703
     26          6           0        9.092982    1.668657    0.228770
     27          6           0        7.709445    1.764545    0.366500
     28          6           0        4.732809    1.623027    0.770139
     29          6           0        4.282282    2.569892   -0.344236
     30          1           0       -3.731831   -2.134826   -0.113428
     31          1           0       -2.310249    0.607987   -0.076294
     32          1           0       -1.237617   -2.283434   -0.072611
     33          1           0        0.079156    0.512977   -0.027655
     34          1           0       -7.192939    3.501353   -0.008437
     35          1           0       -9.638205    3.046285   -0.038434
     36          1           0      -10.476042    0.714855   -0.119701
     37          1           0       -8.914544   -1.192671   -0.174894
     38          1           0       -7.289207   -2.442036   -0.816617
     39          1           0       -5.570728   -2.757498   -0.845647
     40          1           0       -6.666359   -4.026758    1.023381
     41          1           0       -5.536643   -2.835556    1.696522
     42          1           0       -7.280055   -2.514652    1.717995
     43          1           0        1.279871   -2.335280   -0.024232
     44          1           0        2.472390    0.502280    0.013643
     45          1           0        3.691082   -2.326769   -0.105404
     46          1           0        9.416627   -1.639291   -0.558710
     47          1           0       10.787594    0.405440   -0.203502
     48          1           0        9.700309    2.555856    0.377290
     49          1           0        7.251286    2.716142    0.611187
     50          1           0        3.887111    1.202637    1.316886
     51          1           0        5.342782    2.154926    1.505154
     52          1           0        3.668719    2.054906   -1.089954
     53          1           0        3.692500    3.387191    0.083941
     54          1           0        5.141488    3.005946   -0.862588
 ---------------------------------------------------------------------

 SCF Done:  E(RPBE1PBE) =  -1872.31983777     A.U. after   13 cycles

 Excitation energies and oscillator strengths:

 Excited State   1:      Singlet-A      2.0385 eV  608.21 nm  f=2.8530  <S**2>=0.000
     110 -> 111        0.70716
 This state for optimization and/or second-order correction.
 Total Energy, E(TD-HF/TD-DFT) =  -1872.24492416
 Copying the excited state density for this state as the 1-particle RhoCI density.

 Excited State   2:      Singlet-A      3.3042 eV  375.23 nm  f=0.0073  <S**2>=0.000
     109 -> 111        0.64054
     110 -> 112       -0.29247

 Excited State   3:      Singlet-A      3.7160 eV  333.65 nm  f=0.1245  <S**2>=0.000
     108 -> 111        0.27881
     109 -> 111        0.25059
     110 -> 112        0.58775

 Excited State   4:      Singlet-A      3.7669 eV  329.14 nm  f=0.0066  <S**2>=0.000
     108 -> 111        0.59036
     109 -> 111       -0.14478
     110 -> 112       -0.24414
     110 -> 113        0.16048
     110 -> 114        0.17308

 Excited State   5:      Singlet-A      3.7866 eV  327.42 nm  f=0.0134  <S**2>=0.000
     107 -> 111        0.65119
     110 -> 113       -0.18223
     110 -> 114        0.16597

 Excited State   6:      Singlet-A      3.9779 eV  311.68 nm  f=0.0514  <S**2>=0.000
     108 -> 111       -0.24293
     110 -> 113        0.45793
     110 -> 114        0.46224

 Excited State   7:      Singlet-A      3.9943 eV  310.41 nm  f=0.0203  <S**2>=0.000
     107 -> 111        0.24944
     110 -> 113        0.45528
     110 -> 114       -0.45502
     110 -> 116        0.10167

 Excited State   8:      Singlet-A      4.1042 eV  302.09 nm  f=0.0001  <S**2>=0.000
     109 -> 116       -0.14578
     110 -> 115       -0.16236
     110 -> 116        0.65495

 Excited State   9:      Singlet-A      4.1733 eV  297.09 nm  f=0.0039  <S**2>=0.000
     106 -> 111        0.65319
     110 -> 115        0.20651

 Excited State  10:      Singlet-A      4.1934 eV  295.67 nm  f=0.0002  <S**2>=0.000
     109 -> 118        0.14644
     110 -> 117       -0.10888
     110 -> 118        0.67736

 Excited State  11:      Singlet-A      4.3392 eV  285.73 nm  f=0.0181  <S**2>=0.000
     106 -> 111       -0.20951
     110 -> 115        0.63918
     110 -> 116        0.14023

 Excited State  12:      Singlet-A      4.5097 eV  274.93 nm  f=0.0026  <S**2>=0.000
     105 -> 111        0.13005
     110 -> 117        0.67021
     110 -> 118        0.10712

 Excited State  13:      Singlet-A      4.8519 eV  255.54 nm  f=0.0000  <S**2>=0.000
     105 -> 111        0.65634
     109 -> 112        0.15589
     110 -> 117       -0.10345

 Excited State  14:      Singlet-A      4.8831 eV  253.91 nm  f=0.0115  <S**2>=0.000
     105 -> 111       -0.15981
     109 -> 112        0.63057
     110 -> 119        0.16125

 Excited State  15:      Singlet-A      5.2379 eV  236.70 nm  f=0.0029  <S**2>=0.000
     106 -> 114       -0.16259
     108 -> 112        0.28334
     108 -> 114       -0.11678
     108 -> 115        0.13655
     108 -> 117        0.13602
     109 -> 113        0.43479
     109 -> 114        0.27248
     110 -> 114       -0.10155

 Excited State  16:      Singlet-A      5.2743 eV  235.07 nm  f=0.0039  <S**2>=0.000
     106 -> 113       -0.15692
     107 -> 112        0.25720
     107 -> 113        0.10593
     107 -> 114       -0.11475
     107 -> 115       -0.17655
     109 -> 113       -0.25468
     109 -> 114        0.40073
     110 -> 119       -0.25364

 Excited State  17:      Singlet-A      5.3404 eV  232.16 nm  f=0.0034  <S**2>=0.000
     102 -> 111        0.15835
     104 -> 111        0.10380
     109 -> 112       -0.14645
     109 -> 114        0.23813
     110 -> 119        0.59228

 Excited State  18:      Singlet-A      5.4748 eV  226.46 nm  f=0.0254  <S**2>=0.000
     103 -> 111        0.38251
     104 -> 111        0.36944
     107 -> 112       -0.12763
     107 -> 113        0.12901
     108 -> 112        0.17868
     108 -> 113        0.11928
     108 -> 114        0.13667
     109 -> 115       -0.23463

 Excited State  19:      Singlet-A      5.4949 eV  225.63 nm  f=0.0482  <S**2>=0.000
     102 -> 111       -0.10143
     103 -> 111       -0.35229
     104 -> 111        0.46782
     107 -> 113       -0.15956
     107 -> 114        0.13090
     109 -> 117       -0.11742

 Excited State  20:      Singlet-A      5.5419 eV  223.72 nm  f=0.0024  <S**2>=0.000
     103 -> 111       -0.16569
     106 -> 116        0.17029
     107 -> 116        0.38538
     109 -> 116        0.49145
     110 -> 116        0.15045

 Excited State  21:      Singlet-A      5.5482 eV  223.47 nm  f=0.0382  <S**2>=0.000
     103 -> 111       -0.11107
     104 -> 111       -0.23603
     108 -> 112        0.56155
     109 -> 113       -0.19754
     109 -> 114       -0.19415

 Excited State  22:      Singlet-A      5.5605 eV  222.97 nm  f=0.0413  <S**2>=0.000
     103 -> 111        0.24389
     107 -> 112        0.57780
     109 -> 113        0.13191
     109 -> 114       -0.17709

 Excited State  23:      Singlet-A      5.5921 eV  221.71 nm  f=0.0018  <S**2>=0.000
     106 -> 118       -0.16350
     108 -> 118        0.38607
     109 -> 118        0.51857
     110 -> 118       -0.15189

 Excited State  24:      Singlet-A      5.6536 eV  219.30 nm  f=0.0751  <S**2>=0.000
     102 -> 111       -0.20414
     103 -> 111       -0.25408
     104 -> 111       -0.14697
     106 -> 112        0.23079
     107 -> 112        0.11686
     107 -> 113        0.14621
     107 -> 114       -0.12415
     107 -> 116       -0.11246
     108 -> 113        0.15894
     108 -> 114        0.19798
     109 -> 113        0.31722
     109 -> 115       -0.21618

 Excited State  25:      Singlet-A      5.6968 eV  217.64 nm  f=0.0038  <S**2>=0.000
     102 -> 111        0.55605
     103 -> 111       -0.17496
     107 -> 116       -0.13586
     109 -> 113        0.10086
     109 -> 115       -0.13509
     109 -> 117        0.17222
     110 -> 119       -0.11763

 Excited State  26:      Singlet-A      5.7333 eV  216.25 nm  f=0.0368  <S**2>=0.000
     102 -> 111        0.17508
     106 -> 116       -0.10957
     107 -> 116        0.49639
     108 -> 113        0.10957
     108 -> 114        0.13434
     109 -> 116       -0.35074

 Excited State  27:      Singlet-A      5.7459 eV  215.78 nm  f=0.2356  <S**2>=0.000
     102 -> 111        0.15669
     103 -> 111        0.11056
     104 -> 111       -0.16162
     107 -> 113       -0.21073
     107 -> 114        0.18574
     107 -> 116       -0.16208
     108 -> 113        0.22424
     108 -> 114        0.27571
     109 -> 112        0.11027
     109 -> 114        0.25814
     109 -> 116        0.16227
     109 -> 117       -0.17875

 Excited State  28:      Singlet-A      5.8143 eV  213.24 nm  f=0.0006  <S**2>=0.000
     106 -> 118        0.12564
     108 -> 118        0.55819
     109 -> 118       -0.37992

 Excited State  29:      Singlet-A      5.8469 eV  212.05 nm  f=0.0188  <S**2>=0.000
     106 -> 112       -0.20509
     109 -> 115       -0.16948
     110 -> 120        0.60583

 Excited State  30:      Singlet-A      5.8752 eV  211.03 nm  f=0.0138  <S**2>=0.000
     106 -> 112        0.38735
     109 -> 115        0.37051
     110 -> 120        0.20124
     110 -> 121       -0.25337
     110 -> 122        0.23388

 Excited State  31:      Singlet-A      5.9072 eV  209.89 nm  f=0.0176  <S**2>=0.000
     109 -> 115        0.26432
     110 -> 120        0.16234
     110 -> 121        0.53064
     110 -> 122       -0.18233
     110 -> 123       -0.12926

 Excited State  32:      Singlet-A      5.9266 eV  209.20 nm  f=0.0020  <S**2>=0.000
     110 -> 121        0.21879
     110 -> 122        0.56713
     110 -> 123       -0.28861

 Excited State  33:      Singlet-A      5.9615 eV  207.97 nm  f=0.0003  <S**2>=0.000
      96 -> 111       -0.32825
      97 -> 111        0.29074
      99 -> 111       -0.15477
     100 -> 111       -0.17772
     101 -> 111        0.47370

 Excited State  34:      Singlet-A      6.0017 eV  206.58 nm  f=0.0470  <S**2>=0.000
     106 -> 112       -0.26406
     107 -> 113        0.29007
     107 -> 114       -0.21813
     107 -> 115        0.19401
     107 -> 117       -0.11520
     108 -> 113        0.15525
     108 -> 114        0.17873
     108 -> 117        0.14995
     109 -> 115        0.18362
     110 -> 124       -0.25788

 Excited State  35:      Singlet-A      6.0259 eV  205.75 nm  f=0.0055  <S**2>=0.000
     107 -> 113        0.15413
     107 -> 114       -0.11080
     107 -> 115        0.15357
     109 -> 117       -0.14243
     110 -> 120       -0.11599
     110 -> 124        0.57354

 Excited State  36:      Singlet-A      6.0318 eV  205.55 nm  f=0.0768  <S**2>=0.000
     105 -> 114       -0.10478
     106 -> 113       -0.18195
     107 -> 113       -0.12010
     107 -> 115       -0.10968
     108 -> 113        0.22187
     108 -> 114        0.20742
     108 -> 115        0.17453
     108 -> 117        0.24745
     109 -> 114       -0.15668
     109 -> 117        0.34252
     110 -> 124        0.20941

 Excited State  37:      Singlet-A      6.0638 eV  204.47 nm  f=0.0029  <S**2>=0.000
     110 -> 121        0.18864
     110 -> 122        0.19062
     110 -> 123        0.57575
     110 -> 125        0.15316

 Excited State  38:      Singlet-A      6.0816 eV  203.87 nm  f=0.1239  <S**2>=0.000
     102 -> 111       -0.12277
     105 -> 112        0.10042
     106 -> 112        0.11822
     106 -> 113        0.22559
     107 -> 115        0.29368
     107 -> 117       -0.15503
     108 -> 115       -0.10588
     108 -> 117       -0.11248
     109 -> 114        0.12009
     109 -> 117        0.40444
     110 -> 123        0.10454

 Excited State  39:      Singlet-A      6.1364 eV  202.05 nm  f=0.0422  <S**2>=0.000
      95 -> 111       -0.20654
      97 -> 111        0.18450
      98 -> 111        0.16135
     100 -> 111       -0.10447
     101 -> 111       -0.17603
     105 -> 113        0.11588
     106 -> 112       -0.24278
     106 -> 114        0.26983
     107 -> 115       -0.13267
     108 -> 115       -0.15191
     108 -> 117       -0.17457
     109 -> 113        0.14821
     109 -> 115        0.14884
     109 -> 117        0.14300
     110 -> 121       -0.10324

 Excited State  40:      Singlet-A      6.1445 eV  201.78 nm  f=0.0288  <S**2>=0.000
      95 -> 111        0.28088
      97 -> 111       -0.23927
      98 -> 111       -0.27592
     100 -> 111        0.16100
     101 -> 111        0.24118
     106 -> 112       -0.14088
     106 -> 114        0.16882
     108 -> 115       -0.10928
     108 -> 117       -0.12182
     109 -> 117        0.17322

 Excited State  41:      Singlet-A      6.2030 eV  199.88 nm  f=0.0083  <S**2>=0.000
     110 -> 122       -0.14465
     110 -> 123       -0.13640
     110 -> 125        0.61881
     110 -> 126       -0.13863
     110 -> 128        0.10541

 Excited State  42:      Singlet-A      6.2860 eV  197.24 nm  f=0.0006  <S**2>=0.000
     108 -> 113        0.53176
     108 -> 114       -0.45443

 Excited State  43:      Singlet-A      6.2973 eV  196.89 nm  f=0.0013  <S**2>=0.000
      95 -> 111       -0.10696
      96 -> 111       -0.13338
      99 -> 111       -0.42734
     100 -> 111        0.48679
     101 -> 111       -0.10459

 Excited State  44:      Singlet-A      6.3177 eV  196.25 nm  f=0.0004  <S**2>=0.000
     107 -> 113        0.44218
     107 -> 114        0.54829

 Excited State  45:      Singlet-A      6.3586 eV  194.99 nm  f=0.0005  <S**2>=0.000
      96 -> 111        0.17030
      98 -> 111        0.38135
      99 -> 111        0.28080
     100 -> 111        0.31656
     101 -> 111        0.32648

 Excited State  46:      Singlet-A      6.3932 eV  193.93 nm  f=0.0004  <S**2>=0.000
      95 -> 111       -0.12772
      96 -> 111       -0.28905
      97 -> 111        0.17637
      98 -> 111       -0.28310
      99 -> 111        0.40564
     100 -> 111        0.22376
     109 -> 119       -0.12983

 Excited State  47:      Singlet-A      6.4543 eV  192.09 nm  f=0.1449  <S**2>=0.000
      95 -> 111        0.11833
      96 -> 111        0.32707
      97 -> 111        0.33423
      98 -> 111       -0.13914
     106 -> 113       -0.29116
     106 -> 114        0.16759
     107 -> 115        0.20758
     109 -> 119       -0.14372

 Excited State  48:      Singlet-A      6.4756 eV  191.46 nm  f=0.0017  <S**2>=0.000
     105 -> 116       -0.10907
     106 -> 116        0.21336
     109 -> 126       -0.10863
     110 -> 126        0.59569
     110 -> 129        0.14905

 Excited State  49:      Singlet-A      6.4823 eV  191.27 nm  f=0.2450  <S**2>=0.000
      96 -> 111        0.19247
      97 -> 111        0.24328
      98 -> 111       -0.11231
     105 -> 112       -0.26004
     106 -> 113        0.41389
     106 -> 116        0.10925
     107 -> 115       -0.17543
     108 -> 115        0.12820
     108 -> 117        0.10448
     110 -> 127       -0.10348

 Excited State  50:      Singlet-A      6.4976 eV  190.81 nm  f=0.0499  <S**2>=0.000
      95 -> 111        0.23058
      96 -> 111       -0.20538
      98 -> 111        0.22694
     101 -> 111       -0.11305
     106 -> 114        0.37513
     106 -> 116        0.13141
     107 -> 115        0.16893
     108 -> 115        0.17826
     108 -> 117        0.13346
     110 -> 127       -0.18773

 Excited State  51:      Singlet-A      6.5041 eV  190.63 nm  f=0.0621  <S**2>=0.000
      95 -> 111       -0.17127
     105 -> 116       -0.18282
     106 -> 113       -0.13824
     106 -> 114       -0.12279
     106 -> 116        0.38049
     108 -> 115       -0.10029
     109 -> 116       -0.14010
     110 -> 126       -0.12947
     110 -> 127       -0.34711

 Excited State  52:      Singlet-A      6.5258 eV  189.99 nm  f=0.0529  <S**2>=0.000
      95 -> 111        0.41026
      96 -> 111       -0.10525
      97 -> 111        0.22152
      98 -> 111        0.20120
      99 -> 111        0.11414
     101 -> 111       -0.13115
     106 -> 114       -0.26790
     106 -> 116        0.10805
     108 -> 115       -0.17167
     108 -> 117       -0.11106

 Excited State  53:      Singlet-A      6.5629 eV  188.92 nm  f=0.0672  <S**2>=0.000
     105 -> 112        0.32675
     105 -> 116       -0.12358
     106 -> 116        0.28980
     108 -> 115        0.17266
     109 -> 116       -0.10407
     110 -> 126       -0.15056
     110 -> 127        0.38672

 Excited State  54:      Singlet-A      6.5887 eV  188.18 nm  f=0.0977  <S**2>=0.000
     105 -> 112        0.47770
     106 -> 113        0.12417
     106 -> 116       -0.13995
     107 -> 115       -0.14552
     108 -> 115        0.14369
     110 -> 127       -0.25626
     110 -> 128       -0.20500

 Excited State  55:      Singlet-A      6.6408 eV  186.70 nm  f=0.0243  <S**2>=0.000
     105 -> 118       -0.10083
     106 -> 118       -0.21768
     108 -> 115        0.44777
     108 -> 116       -0.12460
     108 -> 117       -0.39185
     110 -> 128        0.14058

 Excited State  56:      Singlet-A      6.6515 eV  186.40 nm  f=0.0150  <S**2>=0.000
     105 -> 118        0.22910
     106 -> 118        0.50687
     108 -> 115        0.16614
     108 -> 117       -0.18436
     109 -> 118        0.16918
     110 -> 128       -0.19213

 Excited State  57:      Singlet-A      6.6652 eV  186.02 nm  f=0.0040  <S**2>=0.000
      88 -> 111       -0.12131
      89 -> 111        0.12238
      91 -> 111        0.21523
      92 -> 111       -0.17821
      93 -> 111        0.43851
      94 -> 111        0.16920
      96 -> 111       -0.13861
     106 -> 118        0.14858
     110 -> 128        0.15009
     110 -> 129        0.14378

 Excited State  58:      Singlet-A      6.6966 eV  185.14 nm  f=0.0035  <S**2>=0.000
      90 -> 111       -0.12706
      91 -> 111       -0.12237
      93 -> 111       -0.15144
      94 -> 111        0.18188
     105 -> 112        0.11096
     106 -> 118        0.13308
     108 -> 116        0.26188
     110 -> 127       -0.18816
     110 -> 128        0.40069
     110 -> 129        0.17091

 Excited State  59:      Singlet-A      6.7024 eV  184.98 nm  f=0.0038  <S**2>=0.000
      94 -> 111       -0.11582
     108 -> 116        0.62379
     108 -> 117       -0.16929
     110 -> 128       -0.13789

 Excited State  60:      Singlet-A      6.7153 eV  184.63 nm  f=0.0003  <S**2>=0.000
      87 -> 111       -0.11751
      89 -> 111        0.11091
      90 -> 111       -0.18635
      94 -> 111        0.52880
     110 -> 127        0.12335
     110 -> 128       -0.23466

 Excited State  61:      Singlet-A      6.7237 eV  184.40 nm  f=0.0778  <S**2>=0.000
     106 -> 115        0.51536
     106 -> 116        0.12598
     107 -> 115       -0.13797
     107 -> 117       -0.27064
     109 -> 119        0.12523

 Excited State  62:      Singlet-A      6.7583 eV  183.45 nm  f=0.0064  <S**2>=0.000
     106 -> 115       -0.24664
     106 -> 117       -0.11448
     107 -> 117       -0.12950
     109 -> 119        0.49274
     110 -> 129       -0.25128

 Excited State  63:      Singlet-A      6.7674 eV  183.21 nm  f=0.0510  <S**2>=0.000
     106 -> 115        0.22944
     107 -> 115        0.23563
     107 -> 117        0.50707
     109 -> 119        0.10107
     110 -> 128        0.13225
     110 -> 129       -0.21523

 Excited State  64:      Singlet-A      6.7942 eV  182.49 nm  f=0.0162  <S**2>=0.000
     107 -> 117        0.13127
     109 -> 119        0.33852
     110 -> 128       -0.15239
     110 -> 129        0.49492
     110 -> 131        0.12250

 Excited State  65:      Singlet-A      6.8325 eV  181.46 nm  f=0.0000  <S**2>=0.000
     107 -> 117       -0.10162
     107 -> 118        0.69908

 Excited State  66:      Singlet-A      6.8980 eV  179.74 nm  f=0.0448  <S**2>=0.000
     104 -> 114       -0.12603
     105 -> 115        0.15554
     106 -> 114       -0.10241
     106 -> 117        0.57144
     109 -> 119        0.17996

 Excited State  67:      Singlet-A      6.9233 eV  179.08 nm  f=0.0009  <S**2>=0.000
      90 -> 111        0.11593
      91 -> 111        0.12674
      92 -> 111        0.60244
      93 -> 111        0.15790
      95 -> 111        0.18235

 Excited State  68:      Singlet-A      6.9298 eV  178.91 nm  f=0.0030  <S**2>=0.000
     110 -> 130       -0.12592
     110 -> 131        0.54983
     110 -> 132       -0.27192
     110 -> 133        0.18369
     110 -> 134        0.13067

 Excited State  69:      Singlet-A      6.9462 eV  178.49 nm  f=0.0008  <S**2>=0.000
      86 -> 111       -0.16390
      87 -> 111        0.19779
      89 -> 111       -0.11911
      90 -> 111        0.28422
      91 -> 111        0.34834
      92 -> 111       -0.10170
      93 -> 111       -0.29511
      94 -> 111        0.27993

 Excited State  70:      Singlet-A      7.0417 eV  176.07 nm  f=0.0029  <S**2>=0.000
      86 -> 111        0.14354
      87 -> 111       -0.25498
      89 -> 111        0.33566
      90 -> 111       -0.14972
      91 -> 111        0.37275
      93 -> 111       -0.23660
      94 -> 111       -0.14308

 Excited State  71:      Singlet-A      7.0474 eV  175.93 nm  f=0.0035  <S**2>=0.000
     105 -> 113        0.10628
     110 -> 128        0.11068
     110 -> 130        0.63563
     110 -> 131        0.12366

 Excited State  72:      Singlet-A      7.0575 eV  175.68 nm  f=0.0645  <S**2>=0.000
     102 -> 113        0.10893
     103 -> 112        0.17888
     103 -> 115       -0.10251
     105 -> 113       -0.32297
     105 -> 114        0.50516
     106 -> 113       -0.16481

 Excited State  73:      Singlet-A      7.0690 eV  175.39 nm  f=0.0437  <S**2>=0.000
     104 -> 112        0.21654
     105 -> 113        0.47284
     105 -> 114        0.32243
     106 -> 114       -0.14335
     106 -> 117       -0.11966
     110 -> 130       -0.12626

 Excited State  74:      Singlet-A      7.0972 eV  174.70 nm  f=0.0002  <S**2>=0.000
     110 -> 131        0.28099
     110 -> 132        0.56122
     110 -> 133       -0.15838

 Excited State  75:      Singlet-A      7.1075 eV  174.44 nm  f=0.0049  <S**2>=0.000
      87 -> 111       -0.10633
      88 -> 111       -0.11786
      89 -> 111        0.30554
      90 -> 111        0.44380
      91 -> 111       -0.27022
      93 -> 111       -0.11009
     105 -> 113        0.12028
     109 -> 122       -0.10470
     109 -> 123        0.10082

 Excited State  76:      Singlet-A      7.1787 eV  172.71 nm  f=0.0096  <S**2>=0.000
     104 -> 112       -0.28431
     105 -> 113        0.10134
     110 -> 132        0.19494
     110 -> 133        0.52302

 Excited State  77:      Singlet-A      7.1927 eV  172.37 nm  f=0.0051  <S**2>=0.000
     102 -> 112       -0.14187

 The electronic state is 1-A.
 Alpha  occ. eigenvalues --  -89.07690 -89.07515 -14.47441 -14.47127 -10.33933
 Alpha  occ. eigenvalues --  -10.33550 -10.29643 -10.29524 -10.28456 -10.28372
 Alpha  occ. eigenvalues --  -10.27396 -10.27246 -10.25634 -10.25612 -10.24924
 Alpha  occ. eigenvalues --  -10.24888 -10.24813 -10.24628 -10.24532 -10.24259
 Alpha  occ. eigenvalues --  -10.24132 -10.24038 -10.23911 -10.23882 -10.23806
 Alpha  occ. eigenvalues --  -10.23024 -10.23000 -10.21849 -10.21718  -8.05482
 Alpha  occ. eigenvalues --   -8.05307  -5.99116  -5.98949  -5.98764  -5.98596
 Alpha  occ. eigenvalues --   -5.98398  -5.98210  -1.04625  -1.04517  -0.90470
 Alpha  occ. eigenvalues --   -0.90374  -0.87545  -0.87254  -0.85753  -0.83967
 Alpha  occ. eigenvalues --   -0.81672  -0.79995  -0.79668  -0.78874  -0.77357
 Alpha  occ. eigenvalues --   -0.76944  -0.75671  -0.72575  -0.68823  -0.67932
 Alpha  occ. eigenvalues --   -0.67806  -0.65690  -0.64861  -0.63428  -0.62636
 Alpha  occ. eigenvalues --   -0.60789  -0.59022  -0.58333  -0.57834  -0.54515
 Alpha  occ. eigenvalues --   -0.54402  -0.54205  -0.52355  -0.52023  -0.50292
 Alpha  occ. eigenvalues --   -0.49218  -0.49103  -0.48853  -0.48023  -0.47815
 Alpha  occ. eigenvalues --   -0.47467  -0.47222  -0.46172  -0.45210  -0.44911
 Alpha  occ. eigenvalues --   -0.44598  -0.43503  -0.42117  -0.42041  -0.41562
 Alpha  occ. eigenvalues --   -0.41365  -0.40714  -0.40415  -0.39518  -0.39341
 Alpha  occ. eigenvalues --   -0.38947  -0.38642  -0.38446  -0.38310  -0.37629
 Alpha  occ. eigenvalues --   -0.37209  -0.36852  -0.36749  -0.36579  -0.36481
 Alpha  occ. eigenvalues --   -0.36338  -0.33766  -0.33332  -0.33211  -0.30456
 Alpha  occ. eigenvalues --   -0.27900  -0.26678  -0.26574  -0.24506  -0.19230
 Alpha virt. eigenvalues --   -0.10650  -0.04356  -0.02617  -0.02590  -0.01352
 Alpha virt. eigenvalues --   -0.00996  -0.00598  -0.00528   0.02526   0.05022
 Alpha virt. eigenvalues --    0.05192   0.05468   0.05938   0.06020   0.06445

 Mulliken charges:
               1
     1  C   -0.380031
     2  C   -0.048590
     3  C   -0.251015
     4  C   -0.069524
     5  C    0.232027
     6  S    0.016051
     7  C    0.023561
     8  C    0.180084
     9  N    0.109997
    10  C   -0.198513
    11  C   -0.172462
    12  C   -0.123344
    13  C   -0.319783
    14  C   -0.169374
    15  C   -0.425619
    16  C   -0.274222
    17  C   -0.010387
    18  C   -0.423860
    19  C    0.243873
    20  S    0.045751
    21  C    0.008293
    22  C    0.185830
    23  N    0.116527
    24  C   -0.196648
    25  C   -0.167430
    26  C   -0.128520
    27  C   -0.317322
    28  C   -0.200672
    29  C   -0.424912
    30  H    0.176310
    31  H    0.156339
    32  H    0.151038
    33  H    0.159640
    34  H    0.174895
    35  H    0.167054
    36  H    0.168216
    37  H    0.176780
    38  H    0.168894
    39  H    0.167404
    40  H    0.155632
    41  H    0.154342
    42  H    0.153456
    43  H    0.150328
    44  H    0.172727
    45  H    0.174214
    46  H    0.174295
    47  H    0.167682
    48  H    0.168613
    49  H    0.181404
    50  H    0.177250
    51  H    0.173147
    52  H    0.155533
    53  H    0.154677
    54  H    0.160365
 Sum of Mulliken charges =   1.00000

 Dipole moment (field-independent basis, Debye):
    X=             -1.0349    Y=              0.2911    Z=              0.6319  Tot=              1.2470
 Quadrupole moment (field-independent basis, Debye-Ang):
   XX=             38.7033   YY=           -145.2352   ZZ=           -192.7127
   XY=             27.3697   XZ=              4.8028   YZ=              5.1493

 Normal termination of Gaussian 16 at Sun Nov  5 19:26:26 2023.
