 Gaussian 16, Revision C.02,
 Gaussian 16:  ES64L-G16RevC.02  7-Dec-2021

 --------------------------------------------------------------
 # td=(nstates=150) PBE1PBE/def2TZVP scrf(smd, solvent=ethanol)
 --------------------------------------------------------------

 ---
 B-1
 ---
 Symbolic Z-matrix:
 Charge =  0 Multiplicity = 1

                         Standard orientation:
 ---------------------------------------------------------------------
 Center     Atomic      Atomic             Coordinates (Angstroms)
 Number     Number       Type             X           Y           Z
 ---------------------------------------------------------------------
      1          6           0       13.193247    1.965180    0.357514
      2          6           0       14.150234    1.366297   -0.666837
      3          6           0       14.197930   -0.145886   -0.469985
      4          6           0       12.839886   -0.781119   -0.265942
      5          6           0       11.699193   -0.069117   -0.020535
      6          6           0       11.734254    1.463294    0.197940
      7          6           0       10.434640   -0.808638    0.027915
      8          6           0        9.147698   -0.368486    0.051934
      9          6           0        7.970978   -1.218813    0.064023
     10          6           0        6.738479   -0.618773    0.069992
     11          6           0        5.445845   -1.238015    0.078209
     12          6           0        4.280328   -0.525977    0.081210
     13          6           0        2.942601   -1.063627    0.086009
     14          6           0        1.885522   -0.185039    0.086900
     15          6           0        0.488362   -0.479870    0.088382
     16          6           0       -0.488364    0.479879    0.088381
     17          6           0       -1.885523    0.185049    0.086901
     18          6           0       -2.942603    1.063636    0.086010
     19          6           0       -4.280330    0.525984    0.081210
     20          6           0       -5.445847    1.238022    0.078205
     21          6           0       -6.738480    0.618778    0.069986
     22          6           0       -7.970980    1.218816    0.064016
     23          6           0       -9.147699    0.368486    0.051926
     24          6           0      -10.434641    0.808636    0.027911
     25          6           0      -11.699193    0.069112   -0.020539
     26          6           0      -11.734248   -1.463299    0.197935
     27          6           0       11.014600    1.853868    1.513234
     28          6           0       11.087577    2.209256   -0.996377
     29          6           0       12.878927   -2.293643   -0.398885
     30          6           0      -13.193238   -1.965187    0.357525
     31          6           0      -14.150237   -1.366308   -0.666817
     32          6           0      -14.197934    0.145875   -0.469969
     33          6           0      -12.839889    0.781111   -0.265939
     34          6           0      -11.014576   -1.853870    1.513220
     35          6           0      -11.087582   -2.209257   -0.996389
     36          6           0      -12.878932    2.293635   -0.398883
     37          6           0       -8.156563    2.717180    0.068498
     38          6           0       -2.769507    2.564242    0.088788
     39          6           0        2.769504   -2.564233    0.088790
     40          6           0        8.156557   -2.717177    0.068503
     41          1           0       13.552240    1.704444    1.363722
     42          1           0       13.191791    3.061587    0.302962
     43          1           0       15.153148    1.798268   -0.563053
     44          1           0       13.813091    1.597755   -1.685187
     45          1           0       14.836732   -0.392637    0.395545
     46          1           0       14.685170   -0.631298   -1.328645
     47          1           0       10.553209   -1.886254   -0.000126
     48          1           0        8.931571    0.694424    0.048253
     49          1           0        6.727188    0.472294    0.066595
     50          1           0        5.394190   -2.323329    0.080545
     51          1           0        4.354073    0.562407    0.078511
     52          1           0        2.136434    0.876729    0.085263
     53          1           0        0.172471   -1.521700    0.088524
     54          1           0       -0.172472    1.521709    0.088521
     55          1           0       -2.136435   -0.876720    0.085267
     56          1           0       -4.354074   -0.562400    0.078514
     57          1           0       -5.394193    2.323335    0.080538
     58          1           0       -6.727188   -0.472289    0.066588
     59          1           0       -8.931568   -0.694423    0.048240
     60          1           0      -10.553213    1.886252   -0.000123
     61          1           0       11.416560    1.280584    2.356412
     62          1           0       11.183965    2.918133    1.720013
     63          1           0        9.936160    1.690871    1.488587
     64          1           0       10.062275    1.884980   -1.187807
     65          1           0       11.067226    3.288779   -0.800274
     66          1           0       11.653135    2.045583   -1.919919
     67          1           0       13.913764   -2.648960   -0.350635
     68          1           0       12.324510   -2.809583    0.392139
     69          1           0       12.468777   -2.633235   -1.360075
     70          1           0      -13.191780   -3.061594    0.302976
     71          1           0      -13.552222   -1.704450    1.363737
     72          1           0      -15.153149   -1.798281   -0.563022
     73          1           0      -13.813104   -1.597768   -1.685170
     74          1           0      -14.836727    0.392627    0.395567
     75          1           0      -14.685183    0.631285   -1.328625
     76          1           0      -11.183932   -2.918136    1.719999
     77          1           0       -9.936137   -1.690867    1.488558
     78          1           0      -11.416527   -1.280589    2.356403
     79          1           0      -10.062283   -1.884978   -1.187830
     80          1           0      -11.067226   -3.288781   -0.800288
     81          1           0      -11.653150   -2.045585   -1.919926
     82          1           0      -13.913771    2.648951   -0.350639
     83          1           0      -12.324521    2.809577    0.392144
     84          1           0      -12.468777    2.633229   -1.360071
     85          1           0       -8.744087    3.036457    0.938730
     86          1           0       -7.209146    3.257946    0.093047
     87          1           0       -8.704221    3.047232   -0.823677
     88          1           0       -3.248036    3.011075    0.969534
     89          1           0       -1.721470    2.868026    0.092705
     90          1           0       -3.242385    3.013831   -0.793611
     91          1           0        3.242396   -3.013825   -0.793600
     92          1           0        3.248019   -3.011063    0.969546
     93          1           0        1.721466   -2.868016    0.092692
     94          1           0        7.209140   -3.257941    0.093061
     95          1           0        8.704208   -3.047230   -0.823677
     96          1           0        8.744089   -3.036455    0.938730
 ---------------------------------------------------------------------

 SCF Done:  E(RPBE1PBE) =  -1556.55184506     A.U. after   12 cycles

 Excitation energies and oscillator strengths:

 Excited State   1:      Singlet-A      1.9923 eV  622.32 nm  f=4.4163  <S**2>=0.000
     148 -> 149        0.70533
 This state for optimization and/or second-order correction.
 Total Energy, E(TD-HF/TD-DFT) =  -1556.47862989
 Copying the excited state density for this state as the 1-particle RhoCI density.

 Excited State   2:      Singlet-A      2.6137 eV  474.37 nm  f=0.0002  <S**2>=0.000
     147 -> 149        0.63060
     148 -> 150        0.30143

 Excited State   3:      Singlet-A      3.0671 eV  404.24 nm  f=0.0024  <S**2>=0.000
     147 -> 149       -0.31071
     148 -> 150        0.63356

 Excited State   4:      Singlet-A      3.2711 eV  379.03 nm  f=0.0600  <S**2>=0.000
     146 -> 149        0.64809
     148 -> 151        0.25262

 Excited State   5:      Singlet-A      3.6404 eV  340.58 nm  f=0.2171  <S**2>=0.000
     147 -> 150        0.60745
     148 -> 151       -0.34060

 Excited State   6:      Singlet-A      3.8971 eV  318.14 nm  f=0.3671  <S**2>=0.000
     144 -> 149        0.13210
     146 -> 149       -0.26167
     147 -> 150        0.33278
     148 -> 151        0.54813

 Excited State   7:      Singlet-A      3.9184 eV  316.42 nm  f=0.0000  <S**2>=0.000
     145 -> 149        0.66383
     148 -> 152        0.19394

 Excited State   8:      Singlet-A      4.2296 eV  293.13 nm  f=0.0002  <S**2>=0.000
     146 -> 150        0.64286
     147 -> 151       -0.18279
     148 -> 152       -0.16797

 Excited State   9:      Singlet-A      4.4129 eV  280.96 nm  f=0.0434  <S**2>=0.000
     144 -> 149        0.66144
     148 -> 151       -0.11321
     148 -> 153        0.16059

 Excited State  10:      Singlet-A      4.4455 eV  278.90 nm  f=0.0012  <S**2>=0.000
     146 -> 150        0.11264
     147 -> 151        0.62717
     148 -> 152       -0.28345

 Excited State  11:      Singlet-A      4.6619 eV  265.95 nm  f=0.0037  <S**2>=0.000
     143 -> 149       -0.23261
     145 -> 149       -0.20189
     146 -> 150        0.22030
     147 -> 151        0.20256
     148 -> 152        0.55140

 Excited State  12:      Singlet-A      4.8561 eV  255.32 nm  f=0.0003  <S**2>=0.000
     144 -> 149       -0.10448
     145 -> 150        0.62393
     147 -> 152       -0.16560
     148 -> 153        0.20338

 Excited State  13:      Singlet-A      5.0271 eV  246.63 nm  f=0.0005  <S**2>=0.000
     141 -> 149       -0.11611
     143 -> 149        0.61377
     148 -> 152        0.18269
     148 -> 156       -0.14611

 Excited State  14:      Singlet-A      5.0697 eV  244.56 nm  f=0.0025  <S**2>=0.000
     141 -> 150        0.19425
     142 -> 149        0.65779

 Excited State  15:      Singlet-A      5.0861 eV  243.77 nm  f=0.0001  <S**2>=0.000
     141 -> 149        0.64882
     142 -> 150        0.18638

 Excited State  16:      Singlet-A      5.1082 eV  242.72 nm  f=0.1490  <S**2>=0.000
     145 -> 150       -0.17146
     146 -> 151        0.64158
     148 -> 153        0.21970

 Excited State  17:      Singlet-A      5.2497 eV  236.17 nm  f=0.0094  <S**2>=0.000
     146 -> 151       -0.16464
     147 -> 152        0.48041
     148 -> 153        0.46398

 Excited State  18:      Singlet-A      5.3067 eV  233.64 nm  f=0.0371  <S**2>=0.000
     138 -> 149       -0.13182
     140 -> 149       -0.23277
     144 -> 149        0.12982
     145 -> 150        0.22977
     146 -> 151        0.16243
     147 -> 152        0.43255
     148 -> 153       -0.33288

 Excited State  19:      Singlet-A      5.3537 eV  231.59 nm  f=0.0001  <S**2>=0.000
     143 -> 149       -0.12597
     144 -> 150        0.62873
     145 -> 151       -0.12864
     147 -> 153       -0.13859
     148 -> 156       -0.17130

 Excited State  20:      Singlet-A      5.4416 eV  227.85 nm  f=0.0015  <S**2>=0.000
     147 -> 154        0.22661
     148 -> 155        0.62851
     148 -> 157        0.16551

 Excited State  21:      Singlet-A      5.4439 eV  227.75 nm  f=0.0107  <S**2>=0.000
     147 -> 155        0.23519
     148 -> 154        0.63403
     148 -> 158        0.13150

 Excited State  22:      Singlet-A      5.5083 eV  225.08 nm  f=0.0109  <S**2>=0.000
     139 -> 150       -0.14025
     140 -> 149        0.62053
     147 -> 152        0.14230
     148 -> 153       -0.16994

 Excited State  23:      Singlet-A      5.5187 eV  224.66 nm  f=0.0003  <S**2>=0.000
     137 -> 149       -0.10643
     139 -> 149        0.65011
     140 -> 150       -0.16125

 Excited State  24:      Singlet-A      5.6016 eV  221.34 nm  f=0.0051  <S**2>=0.000
     138 -> 149        0.63511
     139 -> 150        0.10453
     148 -> 153       -0.10494
     148 -> 157       -0.10886
     148 -> 162       -0.12438

 Excited State  25:      Singlet-A      5.6557 eV  219.22 nm  f=0.0002  <S**2>=0.000
     135 -> 149       -0.10853
     137 -> 149        0.49786
     138 -> 150        0.11242
     139 -> 149        0.13752
     143 -> 149       -0.10064
     144 -> 150       -0.18609
     145 -> 151       -0.25247
     148 -> 156       -0.25980

 Excited State  26:      Singlet-A      5.6682 eV  218.74 nm  f=0.0023  <S**2>=0.000
     147 -> 158        0.11536
     148 -> 155       -0.13367
     148 -> 157        0.59540
     148 -> 159        0.25621
     148 -> 161       -0.10011

 Excited State  27:      Singlet-A      5.6834 eV  218.15 nm  f=0.0001  <S**2>=0.000
     137 -> 149        0.36053
     144 -> 150        0.14240
     145 -> 151        0.52250
     148 -> 156        0.18058

 Excited State  28:      Singlet-A      5.7217 eV  216.69 nm  f=0.0061  <S**2>=0.000
     145 -> 151       -0.18550
     147 -> 157        0.16791
     148 -> 154       -0.13005
     148 -> 156        0.27581
     148 -> 158        0.53661
     148 -> 163        0.16518

 Excited State  29:      Singlet-A      5.8050 eV  213.58 nm  f=0.0001  <S**2>=0.000
     137 -> 149        0.11361
     145 -> 151       -0.22563
     146 -> 152        0.27789
     147 -> 153       -0.14570
     148 -> 156        0.43462
     148 -> 158       -0.30803

 Excited State  30:      Singlet-A      5.8432 eV  212.19 nm  f=0.0030  <S**2>=0.000
     134 -> 149        0.21030
     136 -> 149       -0.22088
     138 -> 149        0.14806
     143 -> 150        0.23541
     147 -> 156        0.14195
     148 -> 159       -0.17183
     148 -> 161        0.19110
     148 -> 162        0.43311

 Excited State  31:      Singlet-A      5.8895 eV  210.52 nm  f=0.0001  <S**2>=0.000
     131 -> 149       -0.43996
     133 -> 149        0.48068

 Excited State  32:      Singlet-A      5.9212 eV  209.39 nm  f=0.0014  <S**2>=0.000
     133 -> 149       -0.10732
     147 -> 158       -0.15996
     148 -> 157       -0.22197
     148 -> 159        0.50594
     148 -> 161       -0.14396
     148 -> 162        0.21919
     148 -> 166        0.13378
     148 -> 167       -0.12412

 Excited State  33:      Singlet-A      5.9258 eV  209.23 nm  f=0.0035  <S**2>=0.000
     137 -> 149        0.10900
     142 -> 150       -0.13558
     144 -> 150        0.12316
     145 -> 151       -0.15683
     146 -> 152       -0.25050
     147 -> 153        0.50558
     148 -> 160        0.12150
     148 -> 163       -0.10505

 Excited State  34:      Singlet-A      5.9326 eV  208.99 nm  f=0.0008  <S**2>=0.000
     147 -> 153       -0.14132
     147 -> 161        0.16247
     148 -> 160        0.61299
     148 -> 169        0.15595

 Excited State  35:      Singlet-A      5.9370 eV  208.83 nm  f=0.0051  <S**2>=0.000
     135 -> 150       -0.10100
     136 -> 149        0.51858
     141 -> 150       -0.12885
     143 -> 150        0.30924
     148 -> 161       -0.16018
     148 -> 162        0.12796

 Excited State  36:      Singlet-A      5.9425 eV  208.64 nm  f=0.0024  <S**2>=0.000
     136 -> 149        0.24346
     147 -> 160        0.17992
     148 -> 159        0.24277
     148 -> 161        0.53194
     148 -> 166       -0.12036
     148 -> 170        0.10677

 Excited State  37:      Singlet-A      5.9465 eV  208.50 nm  f=0.0000  <S**2>=0.000
     135 -> 149        0.59149
     136 -> 150       -0.13058
     137 -> 149        0.17462
     146 -> 152        0.17922
     147 -> 153        0.18432

 Excited State  38:      Singlet-A      5.9541 eV  208.23 nm  f=0.0006  <S**2>=0.000
     135 -> 149       -0.22665
     146 -> 152        0.52724
     147 -> 153        0.31243
     148 -> 156       -0.14361

 Excited State  39:      Singlet-A      5.9783 eV  207.39 nm  f=0.0000  <S**2>=0.000
     129 -> 149        0.37092
     130 -> 149       -0.11456
     132 -> 149       -0.37033
     133 -> 150        0.14282
     141 -> 149        0.14078
     141 -> 151        0.10437
     142 -> 150       -0.32305

 Excited State  40:      Singlet-A      5.9784 eV  207.39 nm  f=0.0009  <S**2>=0.000
     136 -> 149        0.25153
     141 -> 150        0.35789
     142 -> 149       -0.17644
     142 -> 151       -0.16359
     143 -> 150       -0.32293
     148 -> 162        0.22275
     148 -> 166       -0.10639
     148 -> 167       -0.15552

 Excited State  41:      Singlet-A      6.0015 eV  206.59 nm  f=0.0002  <S**2>=0.000
     129 -> 149        0.30679
     132 -> 149       -0.21648
     141 -> 149       -0.15791
     141 -> 151       -0.17729
     142 -> 150        0.49002

 Excited State  42:      Singlet-A      6.0319 eV  205.55 nm  f=0.0023  <S**2>=0.000
     141 -> 150        0.44522
     142 -> 149       -0.12469
     142 -> 151       -0.12164
     143 -> 150        0.30764
     144 -> 151       -0.13624
     148 -> 162       -0.14384
     148 -> 166        0.19931
     148 -> 167        0.18639

 Excited State  43:      Singlet-A      6.0474 eV  205.02 nm  f=0.0000  <S**2>=0.000
     147 -> 159        0.11478
     147 -> 161       -0.13664
     148 -> 154        0.10886
     148 -> 158       -0.17499
     148 -> 163        0.60747

 Excited State  44:      Singlet-A      6.0670 eV  204.36 nm  f=0.0042  <S**2>=0.000
     123 -> 149        0.11442
     134 -> 149        0.29926
     136 -> 149        0.11669
     143 -> 150       -0.13674
     147 -> 165        0.13541
     148 -> 164        0.38465
     148 -> 166        0.27223
     148 -> 167        0.26245

 Excited State  45:      Singlet-A      6.1078 eV  202.99 nm  f=0.0003  <S**2>=0.000
     126 -> 149        0.22496
     128 -> 149        0.39949
     131 -> 149       -0.28632
     132 -> 150        0.16783
     133 -> 149       -0.34306
     141 -> 150       -0.12804

 Excited State  46:      Singlet-A      6.1347 eV  202.10 nm  f=0.0004  <S**2>=0.000
     130 -> 149        0.33507
     146 -> 152        0.10742
     147 -> 164        0.15256
     148 -> 156       -0.11054
     148 -> 165        0.37251
     148 -> 168       -0.35628

 Excited State  47:      Singlet-A      6.1580 eV  201.34 nm  f=0.0006  <S**2>=0.000
     147 -> 154        0.24208
     147 -> 163       -0.17153
     148 -> 155       -0.14334
     148 -> 161        0.16203
     148 -> 166        0.39142
     148 -> 167       -0.38433

 Excited State  48:      Singlet-A      6.1750 eV  200.78 nm  f=0.0007  <S**2>=0.000
     143 -> 150        0.25053
     144 -> 151        0.55565
     145 -> 152       -0.14293
     148 -> 162       -0.11654
     148 -> 164        0.10488
     148 -> 167       -0.17601

 Excited State  49:      Singlet-A      6.1989 eV  200.01 nm  f=0.0016  <S**2>=0.000
     146 -> 154        0.20397
     147 -> 155        0.60217
     148 -> 154       -0.24879
     148 -> 163        0.11114

 Excited State  50:      Singlet-A      6.2033 eV  199.87 nm  f=0.0009  <S**2>=0.000
     144 -> 151        0.12766
     146 -> 155        0.18612
     147 -> 154        0.54754
     148 -> 155       -0.21666
     148 -> 159        0.12382
     148 -> 166       -0.17943
     148 -> 167        0.16646

 Excited State  51:      Singlet-A      6.2254 eV  199.16 nm  f=0.0000  <S**2>=0.000
     122 -> 149        0.27185
     127 -> 149       -0.26879
     129 -> 149        0.29844
     131 -> 150       -0.15458
     132 -> 149        0.42185
     133 -> 150       -0.11509

 Excited State  52:      Singlet-A      6.2902 eV  197.11 nm  f=0.0002  <S**2>=0.000
     130 -> 149       -0.17538
     135 -> 149       -0.14369
     137 -> 149        0.11988
     138 -> 150       -0.10854
     140 -> 150       -0.21685
     147 -> 164        0.14933
     148 -> 165        0.43884
     148 -> 168        0.30807

 Excited State  53:      Singlet-A      6.3092 eV  196.51 nm  f=0.0010  <S**2>=0.000
     134 -> 149       -0.11815
     144 -> 151       -0.23732
     146 -> 153        0.10702
     147 -> 156        0.11772
     147 -> 165        0.16486
     148 -> 162       -0.17577
     148 -> 164        0.40072
     148 -> 166       -0.27604
     148 -> 167       -0.21021

 Excited State  54:      Singlet-A      6.3240 eV  196.05 nm  f=0.0312  <S**2>=0.000
     134 -> 149        0.48472
     144 -> 151       -0.14804
     146 -> 153        0.15230
     147 -> 156        0.14498
     148 -> 162       -0.25128
     148 -> 164       -0.26217
     148 -> 167       -0.15106

 Excited State  55:      Singlet-A      6.3357 eV  195.69 nm  f=0.0009  <S**2>=0.000
     147 -> 157       -0.14923
     147 -> 159       -0.16346
     148 -> 160       -0.14101
     148 -> 168        0.13526
     148 -> 169        0.56768
     148 -> 173       -0.16760

 Excited State  56:      Singlet-A      6.3428 eV  195.47 nm  f=0.0012  <S**2>=0.000
     120 -> 149       -0.13766
     121 -> 149        0.16347
     126 -> 149        0.32825
     128 -> 149        0.25814
     129 -> 150       -0.15178
     131 -> 149        0.34234
     132 -> 150       -0.10773
     133 -> 149        0.22528
     139 -> 150        0.15001

 Excited State  57:      Singlet-A      6.4031 eV  193.63 nm  f=0.0001  <S**2>=0.000
     122 -> 149       -0.17062
     130 -> 149       -0.27343
     138 -> 150       -0.10897
     139 -> 149        0.16204
     139 -> 151        0.15972
     140 -> 150        0.49167
     148 -> 165        0.19725

 Excited State  58:      Singlet-A      6.4295 eV  192.84 nm  f=0.0015  <S**2>=0.000
     134 -> 149       -0.13537
     139 -> 150       -0.34867
     146 -> 153        0.10410
     147 -> 156        0.41168
     148 -> 170       -0.19599

 Excited State  59:      Singlet-A      6.4432 eV  192.43 nm  f=0.0005  <S**2>=0.000
     121 -> 149       -0.10714
     139 -> 150        0.41904
     140 -> 149        0.10909
     140 -> 151        0.12257
     147 -> 156        0.16471
     147 -> 158        0.17388
     147 -> 169       -0.11248
     148 -> 170       -0.35956

 Excited State  60:      Singlet-A      6.4499 eV  192.23 nm  f=0.0001  <S**2>=0.000
     122 -> 149       -0.12254
     129 -> 149        0.17459
     130 -> 149        0.43083
     138 -> 150       -0.24056
     140 -> 150        0.12789
     148 -> 165       -0.10157
     148 -> 168        0.33594

 Excited State  61:      Singlet-A      6.4671 eV  191.72 nm  f=0.0011  <S**2>=0.000
     134 -> 149       -0.12510
     139 -> 150        0.23114
     143 -> 150       -0.10337
     146 -> 153        0.10218
     147 -> 156        0.38909
     147 -> 158       -0.13386
     147 -> 169        0.10946
     148 -> 170        0.37559

 Excited State  62:      Singlet-A      6.4872 eV  191.12 nm  f=0.0003  <S**2>=0.000
     146 -> 158        0.13774
     147 -> 157        0.61943
     148 -> 158       -0.17301
     148 -> 169        0.15815

 Excited State  63:      Singlet-A      6.4991 eV  190.77 nm  f=0.0001  <S**2>=0.000
     118 -> 149       -0.20866
     122 -> 149        0.39476
     127 -> 149       -0.17622
     128 -> 150        0.11011
     129 -> 149       -0.24080
     130 -> 149        0.12886
     132 -> 149       -0.20594
     140 -> 150        0.26435
     148 -> 168        0.10200

 Excited State  64:      Singlet-A      6.5191 eV  190.19 nm  f=0.0001  <S**2>=0.000
     115 -> 149        0.10653
     117 -> 149       -0.11770
     120 -> 149        0.43245
     121 -> 149        0.41636
     125 -> 149        0.15002
     126 -> 149       -0.14682

 Excited State  65:      Singlet-A      6.5415 eV  189.54 nm  f=0.0058  <S**2>=0.000
     146 -> 153       -0.11432
     146 -> 157        0.14106
     147 -> 158        0.57594
     148 -> 157       -0.14795
     148 -> 170        0.24432

 Excited State  66:      Singlet-A      6.5625 eV  188.93 nm  f=0.0805  <S**2>=0.000
     123 -> 149       -0.16762
     145 -> 152       -0.37783
     146 -> 153        0.46434
     147 -> 156       -0.18984
     147 -> 158        0.11432

 Excited State  67:      Singlet-A      6.5729 eV  188.63 nm  f=0.0000  <S**2>=0.000
     130 -> 149        0.10897
     137 -> 151       -0.12042
     138 -> 150        0.54751
     140 -> 150        0.15232
     147 -> 162        0.11711
     148 -> 165        0.13978
     148 -> 168        0.22528

 Excited State  68:      Singlet-A      6.6158 eV  187.40 nm  f=0.0021  <S**2>=0.000
     121 -> 149       -0.24220
     123 -> 149       -0.13305
     126 -> 149       -0.33903
     127 -> 150       -0.15581
     128 -> 149        0.42007
     131 -> 149        0.15991
     133 -> 149        0.10538
     145 -> 152        0.11633

 Excited State  69:      Singlet-A      6.6225 eV  187.22 nm  f=0.0010  <S**2>=0.000
     118 -> 149       -0.24899
     119 -> 149       -0.16092
     122 -> 149        0.22789
     124 -> 149       -0.17844
     126 -> 150        0.11931
     127 -> 149        0.48319
     128 -> 150       -0.10039
     129 -> 149        0.12470
     132 -> 149        0.12594

 Excited State  70:      Singlet-A      6.6251 eV  187.14 nm  f=0.0746  <S**2>=0.000
     123 -> 149       -0.29312
     125 -> 149       -0.19718
     128 -> 149       -0.13301
     145 -> 152        0.47978
     146 -> 153        0.19999

 Excited State  71:      Singlet-A      6.6407 eV  186.70 nm  f=0.0025  <S**2>=0.000
     123 -> 149        0.38950
     125 -> 149        0.25516
     137 -> 150        0.15806
     145 -> 152        0.25079
     146 -> 153        0.36544

 Excited State  72:      Singlet-A      6.6640 eV  186.05 nm  f=0.0021  <S**2>=0.000
     123 -> 149       -0.16871
     137 -> 150        0.56173
     138 -> 149       -0.10260
     138 -> 151       -0.12446
     148 -> 164       -0.11177
     148 -> 172        0.20310

 Excited State  73:      Singlet-A      6.6884 eV  185.37 nm  f=0.0010  <S**2>=0.000
     147 -> 159        0.47574
     147 -> 161        0.14971
     147 -> 170        0.15069
     148 -> 160       -0.17581
     148 -> 169        0.20320
     148 -> 173        0.29747
     148 -> 177        0.10134

 Excited State  74:      Singlet-A      6.7167 eV  184.59 nm  f=0.0007  <S**2>=0.000
     137 -> 150       -0.10795
     146 -> 161        0.13220
     147 -> 160        0.55049
     147 -> 169        0.10503
     148 -> 161       -0.21084
     148 -> 174        0.19896

 Excited State  75:      Singlet-A      6.7198 eV  184.51 nm  f=0.0000  <S**2>=0.000
     116 -> 149       -0.11010
     119 -> 149        0.26320
     124 -> 149        0.31477
     127 -> 149        0.18941
     147 -> 159       -0.14749
     147 -> 161        0.23295
     147 -> 172        0.11686
     148 -> 163        0.10540
     148 -> 171        0.31222

 Excited State  76:      Singlet-A      6.7294 eV  184.24 nm  f=0.0001  <S**2>=0.000
     119 -> 149       -0.22571
     124 -> 149       -0.25612
     127 -> 149       -0.15186
     147 -> 159       -0.19560
     147 -> 161        0.41743
     148 -> 163        0.14286
     148 -> 171        0.10783

 Excited State  77:      Singlet-A      6.7459 eV  183.79 nm  f=0.0004  <S**2>=0.000
     119 -> 149       -0.18212
     127 -> 149       -0.10102
     138 -> 150        0.11306
     140 -> 150        0.10677
     143 -> 151       -0.18360
     147 -> 159        0.13209
     147 -> 161       -0.21922
     147 -> 172        0.15565
     148 -> 171        0.47940

 Excited State  78:      Singlet-A      6.7469 eV  183.76 nm  f=0.0023  <S**2>=0.000
     123 -> 149        0.15571
     125 -> 149       -0.27404
     137 -> 150       -0.21145
     147 -> 171        0.17653
     148 -> 172        0.50508

 Excited State  79:      Singlet-A      6.7648 eV  183.28 nm  f=0.0000  <S**2>=0.000
     136 -> 150        0.10436
     143 -> 151        0.15696
     146 -> 156        0.10765
     147 -> 162        0.58450
     148 -> 171        0.12919

 Excited State  80:      Singlet-A      6.7750 eV  183.00 nm  f=0.0076  <S**2>=0.000
     120 -> 149       -0.21898
     123 -> 149       -0.28863
     124 -> 150        0.12962
     125 -> 149        0.44481
     137 -> 150       -0.11739
     148 -> 172        0.27486

 The electronic state is 1-A.
 Alpha  occ. eigenvalues --  -10.23952 -10.23952 -10.23808 -10.23808 -10.23545
 Alpha  occ. eigenvalues --  -10.23545 -10.23339 -10.23339 -10.22680 -10.22608
 Alpha  occ. eigenvalues --  -10.22463 -10.22463 -10.22452 -10.22452 -10.22374
 Alpha  occ. eigenvalues --  -10.22373 -10.22301 -10.22301 -10.22090 -10.22090
 Alpha  occ. eigenvalues --  -10.22045 -10.22045 -10.21746 -10.21746 -10.21335
 Alpha  occ. eigenvalues --  -10.21335 -10.20965 -10.20965 -10.20906 -10.20906
 Alpha  occ. eigenvalues --  -10.20756 -10.20756 -10.20579 -10.20579 -10.20482
 Alpha  occ. eigenvalues --  -10.20482 -10.19847 -10.19847 -10.19827 -10.19827
 Alpha  occ. eigenvalues --   -0.87235  -0.87233  -0.86227  -0.85688  -0.84696
 Alpha  occ. eigenvalues --   -0.84050  -0.81533  -0.80522  -0.80504  -0.79925
 Alpha  occ. eigenvalues --   -0.79181  -0.77666  -0.76521  -0.74213  -0.73848
 Alpha  occ. eigenvalues --   -0.72193  -0.70557  -0.70540  -0.70019  -0.69805
 Alpha  occ. eigenvalues --   -0.69600  -0.69596  -0.68745  -0.68686  -0.68428
 Alpha  occ. eigenvalues --   -0.65371  -0.63276  -0.61697  -0.60303  -0.58508
 Alpha  occ. eigenvalues --   -0.57525  -0.57525  -0.56384  -0.55889  -0.54788
 Alpha  occ. eigenvalues --   -0.54424  -0.53771  -0.52588  -0.51449  -0.51020
 Alpha  occ. eigenvalues --   -0.49653  -0.48800  -0.48520  -0.48206  -0.47719
 Alpha  occ. eigenvalues --   -0.47283  -0.45970  -0.45626  -0.45285  -0.45147
 Alpha  occ. eigenvalues --   -0.44229  -0.43892  -0.43315  -0.43065  -0.42972
 Alpha  occ. eigenvalues --   -0.42932  -0.42754  -0.42660  -0.42464  -0.42413
 Alpha  occ. eigenvalues --   -0.42358  -0.42345  -0.41002  -0.40967  -0.40816
 Alpha  occ. eigenvalues --   -0.40721  -0.40195  -0.39585  -0.39449  -0.39402
 Alpha  occ. eigenvalues --   -0.39228  -0.39207  -0.38413  -0.38075  -0.37763
 Alpha  occ. eigenvalues --   -0.37309  -0.37220  -0.37045  -0.36846  -0.36720
 Alpha  occ. eigenvalues --   -0.36278  -0.35738  -0.35499  -0.35434  -0.35407
 Alpha  occ. eigenvalues --   -0.35259  -0.35045  -0.34853  -0.34467  -0.34388
 Alpha  occ. eigenvalues --   -0.34215  -0.34087  -0.34053  -0.33838  -0.32375
 Alpha  occ. eigenvalues --   -0.32262  -0.31682  -0.31281  -0.30995  -0.30851
 Alpha  occ. eigenvalues --   -0.29574  -0.29533  -0.29182  -0.26800  -0.24924
 Alpha  occ. eigenvalues --   -0.22490  -0.19986  -0.17444
 Alpha virt. eigenvalues --   -0.08874  -0.05320  -0.02309   0.00827   0.03312
 Alpha virt. eigenvalues --    0.04595   0.04601   0.05407   0.05674   0.05813
 Alpha virt. eigenvalues --    0.06574   0.06712   0.06758   0.06897   0.07006

 Mulliken charges:
               1
     1  C   -0.235770
     2  C   -0.211670
     3  C   -0.206707
     4  C    0.023729
     5  C   -0.087698
     6  C    0.157484
     7  C   -0.179483
     8  C   -0.234067
     9  C    0.061546
    10  C   -0.228664
    11  C   -0.118903
    12  C   -0.263956
    13  C    0.095550
    14  C   -0.198312
    15  C   -0.164516
    16  C   -0.164516
    17  C   -0.198312
    18  C    0.095550
    19  C   -0.263956
    20  C   -0.118903
    21  C   -0.228663
    22  C    0.061544
    23  C   -0.234066
    24  C   -0.179484
    25  C   -0.087698
    26  C    0.157484
    27  C   -0.444923
    28  C   -0.464660
    29  C   -0.462356
    30  C   -0.235770
    31  C   -0.211670
    32  C   -0.206706
    33  C    0.023728
    34  C   -0.444921
    35  C   -0.464661
    36  C   -0.462357
    37  C   -0.430132
    38  C   -0.426913
    39  C   -0.426913
    40  C   -0.430132
    41  H    0.111193
    42  H    0.126924
    43  H    0.124169
    44  H    0.111706
    45  H    0.128047
    46  H    0.141575
    47  H    0.154045
    48  H    0.151210
    49  H    0.139891
    50  H    0.158840
    51  H    0.143721
    52  H    0.144776
    53  H    0.142239
    54  H    0.142239
    55  H    0.144776
    56  H    0.143721
    57  H    0.158840
    58  H    0.139891
    59  H    0.151210
    60  H    0.154046
    61  H    0.139204
    62  H    0.139422
    63  H    0.138193
    64  H    0.140296
    65  H    0.137850
    66  H    0.139007
    67  H    0.158885
    68  H    0.156176
    69  H    0.158970
    70  H    0.126924
    71  H    0.111193
    72  H    0.124169
    73  H    0.111706
    74  H    0.128047
    75  H    0.141575
    76  H    0.139422
    77  H    0.138192
    78  H    0.139204
    79  H    0.140296
    80  H    0.137850
    81  H    0.139007
    82  H    0.158885
    83  H    0.156176
    84  H    0.158970
    85  H    0.153543
    86  H    0.159428
    87  H    0.153915
    88  H    0.153802
    89  H    0.159670
    90  H    0.153725
    91  H    0.153725
    92  H    0.153802
    93  H    0.159670
    94  H    0.159429
    95  H    0.153915
    96  H    0.153543
 Sum of Mulliken charges =  -0.00000

 Dipole moment (field-independent basis, Debye):
    X=              0.0000    Y=             -0.0000    Z=             -0.5437  Tot=              0.5437
 Quadrupole moment (field-independent basis, Debye-Ang):
   XX=           -144.4501   YY=           -224.5289   ZZ=           -261.8801
   XY=            -16.0992   XZ=             -0.0002   YZ=              0.0000

 Normal termination of Gaussian 16 at Sun Nov  5 22:33:31 2023.
