 Gaussian 16, Revision C.02,
 Gaussian 16:  ES64L-G16RevC.02  7-Dec-2021

 --------------------------------------------------------------
 # td=(nstates=150) PBE1PBE/def2TZVP scrf(smd, solvent=ethanol)
 --------------------------------------------------------------

 ---
 A-2
 ---
 Symbolic Z-matrix:
 Charge =  1 Multiplicity = 1

                         Standard orientation:
 ---------------------------------------------------------------------
 Center     Atomic      Atomic             Coordinates (Angstroms)
 Number     Number       Type             X           Y           Z
 ---------------------------------------------------------------------
      1          6           0        1.185932    1.124188    0.259065
      2          6           0       -0.064042    0.518894    0.184736
      3          6           0       -1.255062    1.232433    0.206071
      4          6           0       -2.576908    0.775971    0.134368
      5          6           0        2.392634    0.431471    0.171283
      6         16           0       -3.827667    1.970009   -0.187075
      7          6           0       -5.077877    0.744792   -0.134775
      8          6           0       -4.509195   -0.508640    0.113846
      9          7           0       -3.118372   -0.458179    0.279721
     10         16           0        2.505198   -1.300121   -0.125106
     11          6           0        4.260315   -1.225762   -0.102553
     12          6           0        4.688784    0.087010    0.119416
     13          7           0        3.627512    0.981655    0.287411
     14          6           0        5.159317   -2.267461   -0.279503
     15          6           0        6.517913   -1.973596   -0.237257
     16          6           0        6.953940   -0.663841   -0.025333
     17          6           0        6.051566    0.378213    0.153458
     18          6           0       -6.446804    0.904176   -0.304215
     19          6           0       -7.251229   -0.226106   -0.226408
     20          6           0       -6.689747   -1.482485    0.014868
     21          6           0       -5.320051   -1.640504    0.186250
     22          6           0        3.847144    2.415669    0.554580
     23          6           0        3.911762    3.249637   -0.717632
     24          6           0       -2.369369   -1.660308    0.692423
     25          6           0       -1.918854   -2.522991   -0.479110
     26          1           0        1.228852    2.199196    0.376562
     27          1           0       -0.096636   -0.556945    0.072235
     28          1           0       -1.165193    2.314370    0.224199
     29          1           0        4.813961   -3.279951   -0.448352
     30          1           0        7.240415   -2.768718   -0.373960
     31          1           0        8.015538   -0.449707   -0.002068
     32          1           0        6.406822    1.388085    0.306065
     33          1           0       -6.875736    1.880738   -0.491225
     34          1           0       -8.321880   -0.129159   -0.357431
     35          1           0       -7.330326   -2.354283    0.067360
     36          1           0       -4.901973   -2.621689    0.363736
     37          1           0        3.048585    2.754296    1.212168
     38          1           0        4.772710    2.494849    1.122044
     39          1           0        4.082538    4.295496   -0.452515
     40          1           0        4.728911    2.924468   -1.364544
     41          1           0        2.978199    3.187215   -1.279982
     42          1           0       -1.531667   -1.329317    1.302601
     43          1           0       -3.027666   -2.224702    1.351768
     44          1           0       -1.276100   -1.972556   -1.168349
     45          1           0       -1.359149   -3.379171   -0.096017
     46          1           0       -2.775672   -2.899604   -1.040801
 ---------------------------------------------------------------------

 SCF Done:  E(RPBE1PBE) =  -1717.64084562     A.U. after   13 cycles

 Excitation energies and oscillator strengths:

 Excited State   1:      Singlet-A      2.6241 eV  472.47 nm  f=1.7135  <S**2>=0.000
      96 -> 97         0.70613
 This state for optimization and/or second-order correction.
 Total Energy, E(TD-HF/TD-DFT) =  -1717.54440998
 Copying the excited state density for this state as the 1-particle RhoCI density.

 Excited State   2:      Singlet-A      3.9953 eV  310.32 nm  f=0.0349  <S**2>=0.000
      93 -> 97        -0.10816
      94 -> 97        -0.13176
      95 -> 97         0.63463
      96 -> 98        -0.15110
      96 -> 99        -0.15727

 Excited State   3:      Singlet-A      4.0443 eV  306.56 nm  f=0.0156  <S**2>=0.000
      93 -> 97        -0.32531
      94 -> 97         0.55409
      96 -> 98        -0.13995
      96 -> 99         0.20791

 Excited State   4:      Singlet-A      4.1595 eV  298.08 nm  f=0.0159  <S**2>=0.000
      93 -> 97         0.52147
      94 -> 97         0.29582
      95 -> 97         0.22532
      96 -> 98         0.26136

 Excited State   5:      Singlet-A      4.2708 eV  290.31 nm  f=0.0074  <S**2>=0.000
      93 -> 97         0.13737
      96 -> 98        -0.26941
      96 -> 99         0.12217
      96 ->100        -0.12028
      96 ->101         0.59548

 Excited State   6:      Singlet-A      4.3028 eV  288.15 nm  f=0.0953  <S**2>=0.000
      93 -> 97        -0.14640
      94 -> 97        -0.23154
      95 -> 97         0.14585
      96 -> 98         0.25760
      96 -> 99         0.55727

 Excited State   7:      Singlet-A      4.3312 eV  286.26 nm  f=0.0441  <S**2>=0.000
      93 -> 97        -0.24017
      96 -> 98         0.46913
      96 -> 99        -0.28334
      96 ->101         0.33454

 Excited State   8:      Singlet-A      4.4341 eV  279.62 nm  f=0.0054  <S**2>=0.000
      96 ->100         0.29757
      96 ->103         0.61634

 Excited State   9:      Singlet-A      4.4923 eV  275.99 nm  f=0.0249  <S**2>=0.000
      94 -> 97         0.10214
      96 ->100         0.59249
      96 ->101         0.11237
      96 ->103        -0.29430

 Excited State  10:      Singlet-A      4.7294 eV  262.15 nm  f=0.0331  <S**2>=0.000
      92 -> 97         0.13234
      96 ->102         0.67129

 Excited State  11:      Singlet-A      4.9345 eV  251.26 nm  f=0.0423  <S**2>=0.000
      92 -> 97         0.66795
      96 ->102        -0.10130

 Excited State  12:      Singlet-A      5.2674 eV  235.38 nm  f=0.0290  <S**2>=0.000
      96 ->104         0.68518

 Excited State  13:      Singlet-A      5.5701 eV  222.59 nm  f=0.1307  <S**2>=0.000
      92 -> 97         0.12421
      92 -> 99        -0.13277
      93 -> 98         0.38278
      93 -> 99        -0.19706
      93 ->100         0.10996
      94 -> 99         0.14070
      94 ->100        -0.27346
      94 ->102         0.16832
      95 -> 98         0.13049
      95 -> 99        -0.11487
      95 ->100        -0.21859
      96 ->102        -0.10715

 Excited State  14:      Singlet-A      5.5935 eV  221.66 nm  f=0.0456  <S**2>=0.000
      91 -> 97        -0.18312
      92 -> 98        -0.15508
      93 -> 98         0.11290
      93 -> 99         0.36471
      94 -> 98         0.20918
      94 -> 99         0.20659
      94 ->100         0.18451
      95 ->100        -0.21695
      95 ->102        -0.26044
      96 -> 98         0.10894

 Excited State  15:      Singlet-A      5.6749 eV  218.48 nm  f=0.0008  <S**2>=0.000
      93 ->101        -0.31598
      93 ->103         0.15088
      94 ->101         0.50355
      94 ->103        -0.23804
      95 ->101         0.15702

 Excited State  16:      Singlet-A      5.7122 eV  217.05 nm  f=0.0022  <S**2>=0.000
      91 -> 97        -0.13630
      93 ->103        -0.10538
      94 ->101        -0.13707
      94 ->103        -0.18269
      95 -> 98        -0.11931
      95 ->101         0.33717
      95 ->103         0.49755

 Excited State  17:      Singlet-A      5.7398 eV  216.01 nm  f=0.0181  <S**2>=0.000
      90 -> 97         0.13991
      91 -> 97         0.50324
      93 ->102         0.12538
      94 -> 98        -0.15560
      94 -> 99         0.13166
      94 ->100         0.12867
      95 -> 98         0.10886
      95 -> 99         0.26331
      95 ->103         0.12387

 Excited State  18:      Singlet-A      5.7490 eV  215.66 nm  f=0.0688  <S**2>=0.000
      90 -> 97         0.48872
      91 -> 97        -0.13215
      93 ->100        -0.21244
      94 -> 98        -0.20613
      94 -> 99         0.17267
      94 ->102        -0.10905
      95 -> 98        -0.24422

 Excited State  19:      Singlet-A      5.8765 eV  210.98 nm  f=0.1011  <S**2>=0.000
      90 -> 97         0.20442
      91 -> 97        -0.36130
      93 ->100         0.12370
      94 -> 99        -0.10971
      95 -> 98         0.37916
      95 -> 99         0.33531

 Excited State  20:      Singlet-A      5.9211 eV  209.39 nm  f=0.0360  <S**2>=0.000
      89 -> 97         0.11501
      90 -> 97         0.39752
      91 -> 97         0.16888
      93 -> 98        -0.13683
      93 -> 99         0.10973
      93 ->100         0.17885
      94 -> 98         0.33519
      94 -> 99        -0.24077
      95 -> 99        -0.17538

 Excited State  21:      Singlet-A      5.9662 eV  207.81 nm  f=0.0039  <S**2>=0.000
      96 ->105         0.66398
      96 ->107         0.10509
      96 ->108         0.11712

 Excited State  22:      Singlet-A      6.0484 eV  204.99 nm  f=0.0028  <S**2>=0.000
      92 ->101         0.10540
      92 ->103        -0.15560
      93 ->101         0.51903
      94 ->101         0.24236
      95 ->101         0.28714

 Excited State  23:      Singlet-A      6.0742 eV  204.12 nm  f=0.0098  <S**2>=0.000
      89 -> 97         0.62490
      90 -> 97        -0.10351
      93 ->102         0.11175
      96 ->106         0.14547

 Excited State  24:      Singlet-A      6.1085 eV  202.97 nm  f=0.0025  <S**2>=0.000
      89 -> 97        -0.15853
      96 ->106         0.64754
      96 ->107        -0.14774

 Excited State  25:      Singlet-A      6.1642 eV  201.14 nm  f=0.0093  <S**2>=0.000
      92 ->101        -0.20778
      93 ->100         0.10759
      93 ->103         0.45978
      94 ->103         0.32227
      95 ->103         0.26076

 Excited State  26:      Singlet-A      6.1939 eV  200.17 nm  f=0.0292  <S**2>=0.000
      93 -> 98         0.11987
      94 -> 98         0.26992
      94 ->100        -0.16597
      95 -> 98        -0.34469
      95 -> 99         0.47249

 Excited State  27:      Singlet-A      6.2070 eV  199.75 nm  f=0.3087  <S**2>=0.000
      93 -> 98         0.33374
      94 -> 98         0.10026
      94 -> 99         0.12689
      94 ->100         0.23819
      95 ->100         0.48734

 Excited State  28:      Singlet-A      6.2356 eV  198.83 nm  f=0.0137  <S**2>=0.000
      93 -> 98        -0.35120
      93 -> 99        -0.19657
      94 -> 98         0.23192
      94 -> 99         0.49068
      95 -> 98         0.13140

 Excited State  29:      Singlet-A      6.2628 eV  197.97 nm  f=0.0755  <S**2>=0.000
      93 -> 99         0.40690
      94 -> 98        -0.20039
      94 ->100        -0.39817
      95 -> 98         0.10544
      95 ->100         0.21144
      96 ->106         0.10539
      96 ->107         0.16967

 Excited State  30:      Singlet-A      6.2773 eV  197.51 nm  f=0.3095  <S**2>=0.000
      93 ->100         0.56627
      94 -> 98        -0.18542
      94 ->100         0.10541
      95 -> 98        -0.23142

 Excited State  31:      Singlet-A      6.3135 eV  196.38 nm  f=0.0081  <S**2>=0.000
      94 ->100         0.14686
      95 ->100        -0.10073
      96 ->107         0.62481

 Excited State  32:      Singlet-A      6.3202 eV  196.17 nm  f=0.0014  <S**2>=0.000
      84 -> 97         0.26715
      85 -> 97        -0.12858
      86 -> 97        -0.21167
      88 -> 97         0.55431

 Excited State  33:      Singlet-A      6.4072 eV  193.51 nm  f=0.1104  <S**2>=0.000
      92 -> 98         0.11429
      93 -> 99         0.22841
      94 -> 98         0.10223
      94 ->100         0.10439
      94 ->104        -0.16381
      95 ->100        -0.14761
      95 ->102         0.54057
      95 ->104         0.13580

 Excited State  34:      Singlet-A      6.4681 eV  191.69 nm  f=0.0384  <S**2>=0.000
      93 ->102        -0.10144
      94 ->102         0.26058
      96 ->108         0.51777
      96 ->109         0.18550
      96 ->110        -0.15437
      96 ->111         0.12049

 Excited State  35:      Singlet-A      6.4858 eV  191.16 nm  f=0.0907  <S**2>=0.000
      92 -> 99        -0.11252
      93 -> 98        -0.11525
      93 ->104         0.12197
      94 ->102         0.47053
      94 ->104        -0.11508
      95 -> 98        -0.11669
      95 ->100         0.13966
      96 ->108        -0.27868
      96 ->109        -0.11993
      96 ->110         0.11623

 Excited State  36:      Singlet-A      6.5240 eV  190.04 nm  f=0.0062  <S**2>=0.000
      87 -> 97         0.63862
      93 ->102        -0.19885
      94 ->102        -0.10859

 Excited State  37:      Singlet-A      6.5731 eV  188.62 nm  f=0.0514  <S**2>=0.000
      86 -> 97         0.10927
      87 -> 97         0.21946
      89 -> 97        -0.11154
      93 ->102         0.52521
      94 ->102         0.10793
      95 ->101        -0.15386
      95 ->103         0.10095

 Excited State  38:      Singlet-A      6.5871 eV  188.22 nm  f=0.0050  <S**2>=0.000
      93 ->101        -0.18537
      93 ->102         0.17390
      93 ->103         0.14815
      94 ->101        -0.25112
      94 ->103         0.18161
      95 ->101         0.45306
      95 ->103        -0.30066

 Excited State  39:      Singlet-A      6.6058 eV  187.69 nm  f=0.0042  <S**2>=0.000
      85 -> 97         0.20706
      86 -> 97         0.53646
      88 -> 97         0.32325
      93 ->102        -0.14016

 Excited State  40:      Singlet-A      6.6450 eV  186.58 nm  f=0.0099  <S**2>=0.000
      93 ->103        -0.14197
      94 ->103         0.10474
      96 ->108        -0.15148
      96 ->109         0.54475
      96 ->110         0.27489
      96 ->111         0.15865

 Excited State  41:      Singlet-A      6.6490 eV  186.47 nm  f=0.0002  <S**2>=0.000
      93 ->101        -0.19249
      93 ->103        -0.38892
      94 ->101         0.20862
      94 ->103         0.46115
      96 ->109        -0.15618

 Excited State  42:      Singlet-A      6.7066 eV  184.87 nm  f=0.0004  <S**2>=0.000
      85 -> 97         0.62633
      86 -> 97        -0.26557

 Excited State  43:      Singlet-A      6.7402 eV  183.95 nm  f=0.0018  <S**2>=0.000
      96 ->108         0.23957
      96 ->109        -0.20982
      96 ->110         0.58667
      96 ->112        -0.10197

 Excited State  44:      Singlet-A      6.7585 eV  183.45 nm  f=0.0031  <S**2>=0.000
      81 -> 97         0.14481
      84 -> 97         0.57160
      86 -> 97         0.24126
      88 -> 97        -0.21897

 Excited State  45:      Singlet-A      6.7830 eV  182.79 nm  f=0.1071  <S**2>=0.000
      92 -> 99         0.29498
      92 ->102        -0.10741
      93 ->104         0.20579
      94 ->102         0.17620
      94 ->104         0.19153
      95 ->104         0.45560

 Excited State  46:      Singlet-A      6.8544 eV  180.88 nm  f=0.0239  <S**2>=0.000
      92 -> 98         0.46071
      92 -> 99        -0.13790
      93 ->102         0.13305
      94 ->104        -0.23948
      95 ->102        -0.24094
      95 ->104         0.27806

 Excited State  47:      Singlet-A      6.9003 eV  179.68 nm  f=0.1323  <S**2>=0.000
      92 -> 98         0.38936
      92 -> 99         0.24943
      93 ->104         0.19044
      94 ->104         0.20193
      95 ->104        -0.31940
      96 ->111        -0.14925
      96 ->112         0.12944

 Excited State  48:      Singlet-A      6.9123 eV  179.37 nm  f=0.1545  <S**2>=0.000
      83 -> 97        -0.18244
      92 -> 99         0.44885
      93 ->104        -0.32403
      94 ->102         0.12877
      94 ->104        -0.27958
      95 ->102        -0.13060

 Excited State  49:      Singlet-A      6.9363 eV  178.75 nm  f=0.0107  <S**2>=0.000
      80 -> 97        -0.16092
      82 -> 97        -0.10680
      83 -> 97         0.24820
      92 -> 99         0.12184
      92 ->101         0.10676
      95 ->104        -0.10404
      96 ->108        -0.13282
      96 ->111         0.38318
      96 ->112        -0.35618

 Excited State  50:      Singlet-A      6.9548 eV  178.27 nm  f=0.0333  <S**2>=0.000
      80 -> 97         0.11942
      83 -> 97        -0.18207
      92 -> 98         0.15718
      92 -> 99        -0.11548
      92 ->100         0.14810
      93 ->104        -0.36301
      94 ->102         0.15564
      94 ->104         0.39547
      96 ->111         0.11962
      96 ->112        -0.10034

 Excited State  51:      Singlet-A      6.9761 eV  177.73 nm  f=0.0058  <S**2>=0.000
      80 -> 97        -0.23504
      82 -> 97        -0.26385
      83 -> 97         0.35131
      92 ->100         0.16616
      92 ->101        -0.20151
      93 ->104        -0.24312
      96 ->111        -0.23087

 Excited State  52:      Singlet-A      7.0131 eV  176.79 nm  f=0.0089  <S**2>=0.000
      83 -> 97         0.10438
      90 -> 98         0.10295
      92 ->100        -0.38911
      92 ->101         0.39655
      93 ->104        -0.13881
      94 ->104         0.14765
      96 ->111        -0.12809
      96 ->112         0.12273

 Excited State  53:      Singlet-A      7.0304 eV  176.35 nm  f=0.0069  <S**2>=0.000
      92 ->100         0.44990
      92 ->101         0.38609
      93 ->103         0.11205
      96 ->112         0.24684

 Excited State  54:      Singlet-A      7.0663 eV  175.46 nm  f=0.0022  <S**2>=0.000
      82 -> 97        -0.21921
      92 ->100        -0.14851
      92 ->101        -0.18096
      96 ->109        -0.15551
      96 ->111         0.36850
      96 ->112         0.40438

 Excited State  55:      Singlet-A      7.1017 eV  174.58 nm  f=0.0027  <S**2>=0.000
      78 -> 97         0.15641
      80 -> 97        -0.38117
      81 -> 97        -0.12344
      82 -> 97         0.43350
      96 ->111         0.12043
      96 ->112         0.16539

 Excited State  56:      Singlet-A      7.1382 eV  173.69 nm  f=0.0008  <S**2>=0.000
      91 ->101         0.13028
      91 ->103         0.12472
      92 ->103         0.58300
      93 ->101         0.10071
      96 ->113         0.17253

 Excited State  57:      Singlet-A      7.1704 eV  172.91 nm  f=0.0085  <S**2>=0.000
      81 -> 97         0.53611
      82 -> 97         0.19404
      83 -> 97         0.22427
      84 -> 97        -0.21420

 Excited State  58:      Singlet-A      7.2007 eV  172.18 nm  f=0.0076  <S**2>=0.000
      80 -> 97         0.36762
      81 -> 97        -0.33112
      82 -> 97         0.23814
      83 -> 97         0.30909
      91 -> 98         0.10197
      92 ->102         0.15533

 Excited State  59:      Singlet-A      7.2734 eV  170.46 nm  f=0.0032  <S**2>=0.000
      82 -> 97        -0.14185
      83 -> 97        -0.16446
      90 -> 99        -0.15690
      91 -> 98         0.16589
      91 -> 99         0.12584
      92 ->102         0.52220
      93 ->104         0.13755
      96 ->113         0.11856

 Excited State  60:      Singlet-A      7.2946 eV  169.97 nm  f=0.0006  <S**2>=0.000
      92 ->103        -0.17306
      96 ->112         0.14455
      96 ->113         0.57216
      96 ->114         0.24006

 Excited State  61:      Singlet-A      7.3365 eV  169.00 nm  f=0.0014  <S**2>=0.000
      90 ->101         0.53854
      90 ->103        -0.23891
      91 ->101         0.12739
      91 ->103        -0.12097
      96 ->114        -0.20099

 Excited State  62:      Singlet-A      7.3687 eV  168.26 nm  f=0.0020  <S**2>=0.000
      90 ->101         0.18943
      90 ->103        -0.11153
      96 ->113        -0.18783
      96 ->114         0.43309
      96 ->115         0.37736
      96 ->116         0.12951

 Excited State  63:      Singlet-A      7.3949 eV  167.66 nm  f=0.0009  <S**2>=0.000
      90 ->103        -0.14627
      91 ->101         0.26972
      91 ->103         0.38013
      92 ->103        -0.11797
      96 ->113        -0.10836
      96 ->114         0.15178
      96 ->115        -0.35875

 Excited State  64:      Singlet-A      7.4120 eV  167.27 nm  f=0.0027  <S**2>=0.000
      90 ->101        -0.10930
      91 ->101         0.18976
      91 ->103         0.31662
      96 ->113         0.10895
      96 ->114        -0.34622
      96 ->115         0.36492
      96 ->117         0.12229

 Excited State  65:      Singlet-A      7.4269 eV  166.94 nm  f=0.0004  <S**2>=0.000
      73 -> 97        -0.13506
      76 -> 97         0.17963
      78 -> 97         0.45979
      79 -> 97         0.32515
      80 -> 97         0.18060
      81 -> 97         0.12346
      96 ->115        -0.12521

 Excited State  66:      Singlet-A      7.4685 eV  166.01 nm  f=0.0703  <S**2>=0.000
      90 -> 98         0.38419
      90 -> 99        -0.16874
      91 -> 98        -0.20146
      91 -> 99        -0.37912
      92 ->100         0.15941
      92 ->104        -0.15308

 Excited State  67:      Singlet-A      7.4907 eV  165.52 nm  f=0.0014  <S**2>=0.000
      77 -> 97         0.14485
      78 -> 97        -0.32815
      79 -> 97         0.51935
      80 -> 97        -0.11496
      92 ->104         0.11452
      93 ->106        -0.10695
      95 ->106        -0.10715
      96 ->115        -0.10617

 Excited State  68:      Singlet-A      7.5300 eV  164.65 nm  f=0.5155  <S**2>=0.000
      76 -> 97        -0.11642
      90 -> 98         0.22872
      90 -> 99        -0.32391
      91 -> 98         0.34303
      91 -> 99         0.16403
      92 ->102        -0.32635

 Excited State  69:      Singlet-A      7.5995 eV  163.15 nm  f=0.0051  <S**2>=0.000
      88 -> 98        -0.11072
      88 -> 99        -0.12297
      95 ->105         0.44645
      95 ->108         0.15422
      96 ->114        -0.12542
      96 ->115        -0.11209
      96 ->116         0.37345

 Excited State  70:      Singlet-A      7.6258 eV  162.59 nm  f=0.0053  <S**2>=0.000
      94 ->105         0.13818
      95 ->105        -0.29948
      95 ->108        -0.12183
      96 ->115        -0.13353
      96 ->116         0.44272
      96 ->117         0.28132

 Excited State  71:      Singlet-A      7.6641 eV  161.77 nm  f=0.0167  <S**2>=0.000
      77 -> 97        -0.14964
      87 -> 98        -0.11495
      87 -> 99         0.10968
      89 -> 99        -0.10732
      90 -> 98        -0.12270
      90 ->100         0.44025
      90 ->102        -0.12815
      91 ->102        -0.18452
      92 -> 98        -0.11384
      92 ->104        -0.27437
      95 ->106         0.10916

 Excited State  72:      Singlet-A      7.6707 eV  161.63 nm  f=0.0092  <S**2>=0.000
      76 -> 97        -0.15632
      77 -> 97        -0.27502
      87 -> 98        -0.18213
      87 -> 99         0.16649
      92 ->104         0.15618
      93 ->105         0.32278
      94 ->105        -0.24360
      94 ->108         0.12804
      95 ->105        -0.13175

 Excited State  73:      Singlet-A      7.6919 eV  161.19 nm  f=0.0210  <S**2>=0.000
      90 ->100        -0.13765
      91 ->100        -0.12928
      94 ->105        -0.21927
      96 ->114         0.10837
      96 ->116        -0.19689
      96 ->117         0.49094

 Excited State  74:      Singlet-A      7.6979 eV  161.06 nm  f=0.0402  <S**2>=0.000
      89 -> 98         0.11523
      90 ->100         0.18949
      90 ->102        -0.17204
      91 ->100         0.36394
      91 ->102         0.17154
      92 ->102        -0.10697
      92 ->104         0.15348
      93 ->105        -0.12359
      94 ->105         0.11675
      95 ->106        -0.16268
      96 ->117         0.23142

 Excited State  75:      Singlet-A      7.7064 eV  160.88 nm  f=0.0085  <S**2>=0.000
      77 -> 97         0.13982
      85 -> 98         0.15054
      85 -> 99         0.16436
      88 -> 98         0.34111
      88 -> 99         0.37869
      94 ->105        -0.18204
      95 ->105         0.20904

 Excited State  76:      Singlet-A      7.7244 eV  160.51 nm  f=0.0203  <S**2>=0.000
      77 -> 97         0.18855
      85 -> 99        -0.14887
      87 -> 98         0.27387
      87 -> 99        -0.23920
      88 -> 98        -0.11884
      90 ->100         0.14005
      93 ->105         0.34658
      94 ->105        -0.14248
      94 ->108         0.13603

 The electronic state is 1-A.
 Alpha  occ. eigenvalues --  -89.07759 -89.07629 -14.47668 -14.47290 -10.34116
 Alpha  occ. eigenvalues --  -10.33729 -10.29570 -10.29452 -10.28399 -10.28334
 Alpha  occ. eigenvalues --  -10.27477 -10.27244 -10.26534 -10.24817 -10.24755
 Alpha  occ. eigenvalues --  -10.24560 -10.24460 -10.24341 -10.24047 -10.23963
 Alpha  occ. eigenvalues --  -10.23937 -10.23846 -10.23750 -10.21840 -10.21647
 Alpha  occ. eigenvalues --   -8.05574  -8.05444  -5.99206  -5.99085  -5.98851
 Alpha  occ. eigenvalues --   -5.98730  -5.98492  -5.98348  -1.05197  -1.05047
 Alpha  occ. eigenvalues --   -0.90813  -0.90714  -0.88124  -0.87146  -0.84782
 Alpha  occ. eigenvalues --   -0.81639  -0.80131  -0.79841  -0.78354  -0.77449
 Alpha  occ. eigenvalues --   -0.76709  -0.73396  -0.68613  -0.68156  -0.67955
 Alpha  occ. eigenvalues --   -0.65776  -0.64404  -0.63360  -0.62179  -0.59497
 Alpha  occ. eigenvalues --   -0.58910  -0.55327  -0.54700  -0.54618  -0.52475
 Alpha  occ. eigenvalues --   -0.51617  -0.49605  -0.49488  -0.49415  -0.48396
 Alpha  occ. eigenvalues --   -0.47984  -0.47776  -0.47297  -0.46764  -0.45495
 Alpha  occ. eigenvalues --   -0.45097  -0.43721  -0.42982  -0.42283  -0.42123
 Alpha  occ. eigenvalues --   -0.41393  -0.40989  -0.40027  -0.39927  -0.39061
 Alpha  occ. eigenvalues --   -0.38778  -0.38475  -0.38368  -0.37779  -0.37183
 Alpha  occ. eigenvalues --   -0.36799  -0.36661  -0.36496  -0.34336  -0.33540
 Alpha  occ. eigenvalues --   -0.33420  -0.29940  -0.26867  -0.26776  -0.26660
 Alpha  occ. eigenvalues --   -0.20751
 Alpha virt. eigenvalues --   -0.09377  -0.02653  -0.02601  -0.02038  -0.01182
 Alpha virt. eigenvalues --   -0.00910  -0.00521   0.01087   0.04590   0.04879
 Alpha virt. eigenvalues --    0.05544   0.06342   0.06914   0.07285   0.07754

 Mulliken charges:
               1
     1  C   -0.410034
     2  C   -0.008163
     3  C   -0.436743
     4  C    0.232580
     5  C    0.232904
     6  S    0.047433
     7  C    0.010292
     8  C    0.191480
     9  N    0.118643
    10  S    0.008423
    11  C    0.028477
    12  C    0.181613
    13  N    0.112314
    14  C   -0.205081
    15  C   -0.168002
    16  C   -0.124357
    17  C   -0.315320
    18  C   -0.199134
    19  C   -0.163569
    20  C   -0.129183
    21  C   -0.315518
    22  C   -0.164527
    23  C   -0.425789
    24  C   -0.205874
    25  C   -0.421500
    26  H    0.176641
    27  H    0.179854
    28  H    0.172835
    29  H    0.174242
    30  H    0.166754
    31  H    0.167407
    32  H    0.176035
    33  H    0.174111
    34  H    0.167212
    35  H    0.167921
    36  H    0.180303
    37  H    0.167053
    38  H    0.169000
    39  H    0.155416
    40  H    0.153767
    41  H    0.154400
    42  H    0.179183
    43  H    0.174483
    44  H    0.156381
    45  H    0.154151
    46  H    0.161486
 Sum of Mulliken charges =   1.00000

 Dipole moment (field-independent basis, Debye):
    X=              1.1948    Y=              0.3166    Z=              1.2539  Tot=              1.7607
 Quadrupole moment (field-independent basis, Debye-Ang):
   XX=            -50.8347   YY=           -123.5258   ZZ=           -165.4082
   XY=             15.7602   XZ=              1.6655   YZ=              0.9373

 Normal termination of Gaussian 16 at Sun Nov  5 00:04:38 2023.
