 Gaussian 16, Revision C.02,
 Gaussian 16:  ES64L-G16RevC.02  7-Dec-2021

 -------------------------------------------------------------
 # td=(nstates=50) PBE1PBE/def2TZVP scrf(smd, solvent=ethanol)
 -------------------------------------------------------------

 ---
 B-2
 ---
 Symbolic Z-matrix:
 Charge =  0 Multiplicity = 1

                         Standard orientation:
 ---------------------------------------------------------------------
 Center     Atomic      Atomic             Coordinates (Angstroms)
 Number     Number       Type             X           Y           Z
 ---------------------------------------------------------------------
      1          6           0        4.186043   -0.985243   -0.000113
      2          6           0        2.965678   -0.099955    0.000017
      3          6           0        1.724259   -0.636470   -0.000213
      4          6           0        0.452578    0.059668   -0.000179
      5          6           0       -0.741079   -0.579413   -0.000205
      6          6           0       -2.064372    0.040415   -0.000137
      7          6           0       -3.152878   -0.763225    0.000253
      8          6           0       -4.604173   -0.385851    0.000427
      9          6           0        3.260391    1.378273    0.000567
     10          6           0       -2.133175    1.550261   -0.000541
     11          1           0        4.817179   -0.791217   -0.879673
     12          1           0        4.817098   -0.791647    0.879598
     13          1           0        3.922096   -2.047445   -0.000374
     14          1           0        1.652379   -1.725280   -0.000493
     15          1           0        0.469127    1.146468   -0.000113
     16          1           0       -0.735417   -1.670538   -0.000304
     17          1           0       -2.968126   -1.838635    0.000440
     18          1           0       -4.773466    0.693748    0.001475
     19          1           0       -5.114894   -0.802710   -0.879231
     20          1           0       -5.115042   -0.804470    0.879137
     21          1           0        2.363003    2.000757    0.000075
     22          1           0        3.859006    1.653716    0.880554
     23          1           0        3.860320    1.654180   -0.878355
     24          1           0       -1.627265    1.964044   -0.882102
     25          1           0       -3.158688    1.923675   -0.000452
     26          1           0       -1.626926    1.964596    0.880567
 ---------------------------------------------------------------------

 SCF Done:  E(RPBE1PBE) =  -390.324964013     A.U. after   11 cycles

 Excitation energies and oscillator strengths:

 Excited State   1:      Singlet-A      4.2761 eV  289.95 nm  f=1.4271  <S**2>=0.000
      38 -> 39         0.70716
 This state for optimization and/or second-order correction.
 Total Energy, E(TD-HF/TD-DFT) =  -390.167820573
 Copying the excited state density for this state as the 1-particle RhoCI density.

 Excited State   2:      Singlet-A      5.6152 eV  220.80 nm  f=0.0097  <S**2>=0.000
      37 -> 39         0.58732
      38 -> 40         0.38729

 Excited State   3:      Singlet-A      6.1654 eV  201.10 nm  f=0.0084  <S**2>=0.000
      38 -> 41         0.69909

 Excited State   4:      Singlet-A      6.3583 eV  194.99 nm  f=0.0152  <S**2>=0.000
      37 -> 39        -0.38189
      38 -> 40         0.58365

 Excited State   5:      Singlet-A      6.4149 eV  193.28 nm  f=0.0001  <S**2>=0.000
      38 -> 42         0.69464

 Excited State   6:      Singlet-A      6.5787 eV  188.46 nm  f=0.0002  <S**2>=0.000
      36 -> 39        -0.16295
      38 -> 43         0.66393
      38 -> 45        -0.15185

 Excited State   7:      Singlet-A      6.6631 eV  186.08 nm  f=0.0074  <S**2>=0.000
      35 -> 39        -0.29999
      38 -> 44         0.63783

 Excited State   8:      Singlet-A      6.6724 eV  185.82 nm  f=0.0000  <S**2>=0.000
      36 -> 39         0.67694
      38 -> 43         0.16435

 Excited State   9:      Singlet-A      7.0828 eV  175.05 nm  f=0.0000  <S**2>=0.000
      34 -> 39         0.68268
      36 -> 40         0.10398

 Excited State  10:      Singlet-A      7.1817 eV  172.64 nm  f=0.0001  <S**2>=0.000
      38 -> 43         0.14624
      38 -> 45         0.67026

 Excited State  11:      Singlet-A      7.4206 eV  167.08 nm  f=0.0032  <S**2>=0.000
      35 -> 39         0.62992
      38 -> 44         0.29423

 Excited State  12:      Singlet-A      7.4413 eV  166.62 nm  f=0.0000  <S**2>=0.000
      38 -> 46         0.61579
      38 -> 47         0.28646

 Excited State  13:      Singlet-A      7.4600 eV  166.20 nm  f=0.0003  <S**2>=0.000
      32 -> 39         0.21693
      33 -> 39         0.64008

 Excited State  14:      Singlet-A      7.6004 eV  163.13 nm  f=0.0003  <S**2>=0.000
      38 -> 46        -0.28205
      38 -> 47         0.60718
      38 -> 49         0.11210

 Excited State  15:      Singlet-A      7.7202 eV  160.60 nm  f=0.0001  <S**2>=0.000
      30 -> 39        -0.24293
      32 -> 39         0.57539
      33 -> 39        -0.23476
      34 -> 40        -0.10327

 Excited State  16:      Singlet-A      7.8020 eV  158.91 nm  f=0.0004  <S**2>=0.000
      38 -> 48         0.64992
      38 -> 49         0.19030

 Excited State  17:      Singlet-A      7.9426 eV  156.10 nm  f=0.0000  <S**2>=0.000
      38 -> 46         0.12267
      38 -> 48        -0.20391
      38 -> 49         0.64407

 Excited State  18:      Singlet-A      7.9966 eV  155.05 nm  f=0.3103  <S**2>=0.000
      37 -> 40         0.69705

 Excited State  19:      Singlet-A      8.0274 eV  154.45 nm  f=0.0016  <S**2>=0.000
      31 -> 39         0.64160
      32 -> 39        -0.13713
      33 -> 40        -0.10875
      37 -> 41        -0.14645

 Excited State  20:      Singlet-A      8.0640 eV  153.75 nm  f=0.0023  <S**2>=0.000
      31 -> 39         0.13772
      37 -> 41         0.63918
      37 -> 42         0.19303

 Excited State  21:      Singlet-A      8.1704 eV  151.75 nm  f=0.0014  <S**2>=0.000
      30 -> 39         0.63460
      31 -> 39         0.12594
      32 -> 39         0.24640

 Excited State  22:      Singlet-A      8.2963 eV  149.45 nm  f=0.0275  <S**2>=0.000
      38 -> 50         0.67814
      38 -> 51         0.14244

 Excited State  23:      Singlet-A      8.3514 eV  148.46 nm  f=0.0006  <S**2>=0.000
      37 -> 41        -0.20331
      37 -> 42         0.64812

 Excited State  24:      Singlet-A      8.3776 eV  147.99 nm  f=0.0133  <S**2>=0.000
      38 -> 50        -0.14270
      38 -> 51         0.68199

 Excited State  25:      Singlet-A      8.5086 eV  145.72 nm  f=0.0035  <S**2>=0.000
      28 -> 39         0.58056
      36 -> 40         0.10608
      37 -> 43         0.33421

 Excited State  26:      Singlet-A      8.5280 eV  145.39 nm  f=0.0047  <S**2>=0.000
      28 -> 39        -0.34122
      37 -> 43         0.58082
      37 -> 45        -0.10656

 Excited State  27:      Singlet-A      8.6006 eV  144.16 nm  f=0.0013  <S**2>=0.000
      37 -> 44         0.47843
      38 -> 52         0.49633

 Excited State  28:      Singlet-A      8.6552 eV  143.25 nm  f=0.0561  <S**2>=0.000
      29 -> 39         0.68908
      38 -> 52        -0.11235

 Excited State  29:      Singlet-A      8.6856 eV  142.75 nm  f=0.0034  <S**2>=0.000
      38 -> 53         0.66931

 Excited State  30:      Singlet-A      8.7243 eV  142.11 nm  f=0.0192  <S**2>=0.000
      37 -> 44         0.50648
      38 -> 52        -0.47171

 Excited State  31:      Singlet-A      8.8021 eV  140.86 nm  f=0.0003  <S**2>=0.000
      38 -> 54         0.67673
      38 -> 55         0.10027

 Excited State  32:      Singlet-A      8.9567 eV  138.43 nm  f=0.0003  <S**2>=0.000
      26 -> 39         0.13859
      28 -> 39        -0.12402
      34 -> 44         0.14134
      36 -> 40         0.63942

 Excited State  33:      Singlet-A      9.0635 eV  136.79 nm  f=0.0037  <S**2>=0.000
      37 -> 45         0.53012
      38 -> 55        -0.37713
      38 -> 57         0.13237

 Excited State  34:      Singlet-A      9.1138 eV  136.04 nm  f=0.0016  <S**2>=0.000
      37 -> 45         0.39248
      38 -> 55         0.53716

 Excited State  35:      Singlet-A      9.1531 eV  135.46 nm  f=0.0005  <S**2>=0.000
      26 -> 39         0.60547
      32 -> 40        -0.11714
      36 -> 40        -0.16000
      38 -> 57        -0.19981

 Excited State  36:      Singlet-A      9.1754 eV  135.13 nm  f=0.0244  <S**2>=0.000
      25 -> 39        -0.11638
      27 -> 39         0.68320

 Excited State  37:      Singlet-A      9.2057 eV  134.68 nm  f=0.0026  <S**2>=0.000
      26 -> 39         0.17755
      34 -> 40         0.10848
      37 -> 45        -0.12739
      38 -> 57         0.62608

 Excited State  38:      Singlet-A      9.2862 eV  133.51 nm  f=0.0027  <S**2>=0.000
      26 -> 39        -0.12852
      34 -> 40         0.51035
      36 -> 44         0.26125
      37 -> 46        -0.23411
      37 -> 47        -0.16608

 Excited State  39:      Singlet-A      9.2881 eV  133.49 nm  f=0.0036  <S**2>=0.000
      35 -> 40         0.66634
      38 -> 56         0.15197

 Excited State  40:      Singlet-A      9.3215 eV  133.01 nm  f=0.0544  <S**2>=0.000
      35 -> 40        -0.15563
      38 -> 56         0.67282

 Excited State  41:      Singlet-A      9.3363 eV  132.80 nm  f=0.0013  <S**2>=0.000
      34 -> 40         0.27364
      35 -> 43         0.10683
      36 -> 44         0.13667
      37 -> 46         0.48601
      37 -> 47         0.28693
      38 -> 57        -0.10986
      38 -> 58         0.13086

 Excited State  42:      Singlet-A      9.4821 eV  130.76 nm  f=0.0030  <S**2>=0.000
      35 -> 41         0.25361
      37 -> 46        -0.27030
      37 -> 47         0.47854
      37 -> 49         0.17032
      38 -> 58         0.18315
      38 -> 59        -0.11323

 Excited State  43:      Singlet-A      9.5220 eV  130.21 nm  f=0.0029  <S**2>=0.000
      37 -> 47        -0.23177
      37 -> 48        -0.16643
      38 -> 58         0.57251
      38 -> 59        -0.20963

 Excited State  44:      Singlet-A      9.5298 eV  130.10 nm  f=0.0414  <S**2>=0.000
      34 -> 42        -0.20453
      36 -> 41         0.65088

 Excited State  45:      Singlet-A      9.6301 eV  128.75 nm  f=0.0020  <S**2>=0.000
      35 -> 41         0.50903
      35 -> 43        -0.10683
      37 -> 46         0.21905
      37 -> 47        -0.16086
      37 -> 48         0.13621
      38 -> 58         0.13978
      38 -> 59         0.26368

 Excited State  46:      Singlet-A      9.6693 eV  128.22 nm  f=0.0063  <S**2>=0.000
      35 -> 41        -0.28734
      37 -> 46        -0.11994
      37 -> 47         0.13420
      37 -> 48         0.13053
      38 -> 58         0.26123
      38 -> 59         0.51901

 Excited State  47:      Singlet-A      9.6888 eV  127.97 nm  f=0.0069  <S**2>=0.000
      34 -> 41        -0.42935
      36 -> 42         0.51540

 Excited State  48:      Singlet-A      9.7419 eV  127.27 nm  f=0.0031  <S**2>=0.000
      25 -> 39         0.65647
      38 -> 60         0.17293

 Excited State  49:      Singlet-A      9.7599 eV  127.03 nm  f=0.0001  <S**2>=0.000
      23 -> 39        -0.14902
      33 -> 40         0.53758
      37 -> 48        -0.28467

 Excited State  50:      Singlet-A      9.7915 eV  126.62 nm  f=0.0007  <S**2>=0.000
      33 -> 40         0.30001
      35 -> 41        -0.14840
      37 -> 48         0.53099
      38 -> 59        -0.20750

 The electronic state is 1-A.
 Alpha  occ. eigenvalues --  -10.23392 -10.23010 -10.22074 -10.21936 -10.21855
 Alpha  occ. eigenvalues --  -10.21292 -10.20923 -10.20812 -10.20747 -10.20688
 Alpha  occ. eigenvalues --   -0.85077  -0.83094  -0.78153  -0.73881  -0.70617
 Alpha  occ. eigenvalues --   -0.69863  -0.66803  -0.58529  -0.54106  -0.52215
 Alpha  occ. eigenvalues --   -0.48861  -0.46868  -0.44864  -0.43872  -0.42893
 Alpha  occ. eigenvalues --   -0.42275  -0.40751  -0.38941  -0.38797  -0.38096
 Alpha  occ. eigenvalues --   -0.37740  -0.36955  -0.36189  -0.34531  -0.33385
 Alpha  occ. eigenvalues --   -0.33274  -0.27482  -0.20605
 Alpha virt. eigenvalues --   -0.03529   0.04610   0.05569   0.06366   0.07594
 Alpha virt. eigenvalues --    0.08140   0.09376   0.10302   0.10876   0.11790
 Alpha virt. eigenvalues --    0.12386   0.13189   0.13355   0.14626   0.15185

 Mulliken charges:
               1
     1  C   -0.404999
     2  C    0.067070
     3  C   -0.293565
     4  C   -0.101074
     5  C   -0.226938
     6  C   -0.010381
     7  C   -0.156305
     8  C   -0.391462
     9  C   -0.402172
    10  C   -0.417341
    11  H    0.144628
    12  H    0.144617
    13  H    0.145273
    14  H    0.137487
    15  H    0.156492
    16  H    0.140027
    17  H    0.144252
    18  H    0.140123
    19  H    0.149687
    20  H    0.149673
    21  H    0.143340
    22  H    0.147106
    23  H    0.147090
    24  H    0.149991
    25  H    0.147390
    26  H    0.149990
 Sum of Mulliken charges =  -0.00000

 Dipole moment (field-independent basis, Debye):
    X=              0.1498    Y=              0.5998    Z=              0.0002  Tot=              0.6182
 Quadrupole moment (field-independent basis, Debye-Ang):
   XX=            -51.4685   YY=            -58.8602   ZZ=            -67.4797
   XY=              1.0611   XZ=              0.0013   YZ=              0.0002

 Normal termination of Gaussian 16 at Sat Nov  4 18:49:54 2023.
