 Gaussian 16, Revision C.02,
 Gaussian 16:  ES64L-G16RevC.02  7-Dec-2021

 --------------------------------------------------------------
 # td=(nstates=150) PBE1PBE/def2TZVP scrf(smd, solvent=ethanol)
 --------------------------------------------------------------

 ---
 A-3
 ---
 Symbolic Z-matrix:
 Charge =  1 Multiplicity = 1

                         Standard orientation:
 ---------------------------------------------------------------------
 Center     Atomic      Atomic             Coordinates (Angstroms)
 Number     Number       Type             X           Y           Z
 ---------------------------------------------------------------------
      1          6           0       -2.428041    1.066524   -0.253176
      2          6           0       -1.163701    0.479343   -0.188922
      3          6           0        0.041805    1.173916   -0.256816
      4          6           0        1.286450    0.541332   -0.181046
      5          6           0       -3.632364    0.360929   -0.172103
      6         16           0       -3.731682   -1.381240    0.072853
      7          6           0       -5.492381   -1.316150    0.079346
      8          6           0       -5.937414    0.002523   -0.102460
      9          7           0       -4.878726    0.909623   -0.261587
     10          6           0       -6.386349   -2.371189    0.240698
     11          6           0       -7.751214   -2.085245    0.223608
     12          6           0       -8.201765   -0.770406    0.051330
     13          6           0       -7.306986    0.285734   -0.111525
     14          6           0       -5.109277    2.349928   -0.473641
     15          6           0       -5.164583    3.142776    0.833251
     16          6           0        2.499506    1.229230   -0.203687
     17          6           0        3.822110    0.764058   -0.127091
     18         16           0        5.094002    1.944187    0.172030
     19          6           0        6.326179    0.693711    0.140374
     20          6           0        5.740783   -0.561555   -0.088266
     21          7           0        4.346445   -0.488644   -0.256376
     22          6           0        7.702092    0.835001    0.309547
     23          6           0        8.493059   -0.310930    0.250826
     24          6           0        7.913914   -1.567173    0.028296
     25          6           0        6.538273   -1.709565   -0.142327
     26          6           0        3.573454   -1.678630   -0.651238
     27          6           0        3.111260   -2.522112    0.538719
     28          1           0       -2.480232    2.144966   -0.359543
     29          1           0       -1.101764   -0.604050   -0.075964
     30          1           0        0.014895    2.256753   -0.370616
     31          1           0        1.271155   -0.537990   -0.061902
     32          1           0       -6.030956   -3.387372    0.377927
     33          1           0       -8.467850   -2.890478    0.348789
     34          1           0       -9.267265   -0.563876    0.046694
     35          1           0       -7.675558    1.298131   -0.232690
     36          1           0       -4.320988    2.718242   -1.133807
     37          1           0       -6.043470    2.442277   -1.031819
     38          1           0       -4.221825    3.066705    1.383681
     39          1           0       -5.350379    4.199206    0.614515
     40          1           0       -5.968923    2.780771    1.480961
     41          1           0        2.426074    2.314290   -0.229676
     42          1           0        8.144449    1.810753    0.482525
     43          1           0        9.567045   -0.226720    0.381606
     44          1           0        8.544040   -2.450028   -0.009720
     45          1           0        6.108776   -2.691785   -0.303762
     46          1           0        2.735494   -1.334144   -1.259472
     47          1           0        4.216087   -2.264286   -1.313807
     48          1           0        3.963720   -2.884064    1.121248
     49          1           0        2.464779   -1.951800    1.212975
     50          1           0        2.552692   -3.391803    0.177306
 ---------------------------------------------------------------------

 SCF Done:  E(RPBE1PBE) =  -1794.97947564     A.U. after   13 cycles

 Excitation energies and oscillator strengths:

 Excited State   1:      Singlet-A      2.2858 eV  542.42 nm  f=2.3156  <S**2>=0.000
     103 ->104         0.70674
 This state for optimization and/or second-order correction.
 Total Energy, E(TD-HF/TD-DFT) =  -1794.89547540
 Copying the excited state density for this state as the 1-particle RhoCI density.

 Excited State   2:      Singlet-A      3.6879 eV  336.19 nm  f=0.0180  <S**2>=0.000
     101 ->104        -0.11734
     102 ->104         0.65770
     103 ->105         0.21179

 Excited State   3:      Singlet-A      3.8597 eV  321.23 nm  f=0.0169  <S**2>=0.000
     101 ->104         0.63602
     103 ->105         0.11541
     103 ->106        -0.19809
     103 ->107        -0.14101

 Excited State   4:      Singlet-A      3.8865 eV  319.01 nm  f=0.0130  <S**2>=0.000
     100 ->104         0.64623
     103 ->106        -0.15878
     103 ->107         0.19607

 Excited State   5:      Singlet-A      4.0805 eV  303.84 nm  f=0.1250  <S**2>=0.000
     100 ->104         0.13015
     102 ->104        -0.18886
     103 ->105         0.59237
     103 ->106         0.28000

 Excited State   6:      Singlet-A      4.1031 eV  302.18 nm  f=0.0518  <S**2>=0.000
     101 ->104         0.26470
     103 ->105        -0.18790
     103 ->106         0.45689
     103 ->107         0.40750

 Excited State   7:      Singlet-A      4.1253 eV  300.55 nm  f=0.0031  <S**2>=0.000
     100 ->104        -0.21833
     103 ->105         0.16248
     103 ->106        -0.34467
     103 ->107         0.48511
     103 ->109        -0.21623

 Excited State   8:      Singlet-A      4.2025 eV  295.03 nm  f=0.0005  <S**2>=0.000
     102 ->109        -0.11600
     103 ->106        -0.11810
     103 ->107         0.15737
     103 ->108        -0.21453
     103 ->109         0.61285

 Excited State   9:      Singlet-A      4.2758 eV  289.97 nm  f=0.0004  <S**2>=0.000
     102 ->110         0.12241
     103 ->110         0.68744

 Excited State  10:      Singlet-A      4.4524 eV  278.47 nm  f=0.0199  <S**2>=0.000
      99 ->104         0.43839
     103 ->108         0.50960
     103 ->109         0.18610

 Excited State  11:      Singlet-A      4.5453 eV  272.77 nm  f=0.0153  <S**2>=0.000
      99 ->104         0.53407
     103 ->108        -0.40610
     103 ->109        -0.13431

 Excited State  12:      Singlet-A      4.7590 eV  260.53 nm  f=0.0096  <S**2>=0.000
     103 ->111         0.68186

 Excited State  13:      Singlet-A      5.2727 eV  235.14 nm  f=0.0058  <S**2>=0.000
      98 ->104         0.61122
     100 ->106        -0.11321
     100 ->107         0.14076
     101 ->107         0.10526
     102 ->106         0.14171

 Excited State  14:      Singlet-A      5.3119 eV  233.41 nm  f=0.0544  <S**2>=0.000
      99 ->106         0.13429
     100 ->106        -0.12453
     100 ->107         0.17904
     100 ->108         0.11428
     101 ->106        -0.13197
     101 ->107        -0.16207
     101 ->108         0.11476
     102 ->105         0.53178
     102 ->107        -0.12746

 Excited State  15:      Singlet-A      5.4393 eV  227.94 nm  f=0.0073  <S**2>=0.000
      98 ->104        -0.29204
      99 ->105         0.13394
      99 ->107        -0.13575
     100 ->105         0.10065
     100 ->107         0.13102
     100 ->108         0.10928
     101 ->105         0.18344
     101 ->107         0.12790
     101 ->108        -0.11944
     102 ->106         0.44360
     102 ->108         0.12065

 Excited State  16:      Singlet-A      5.5475 eV  223.50 nm  f=0.0150  <S**2>=0.000
      96 ->104        -0.20121
      97 ->104        -0.23566
      99 ->106        -0.12180
     100 ->105        -0.22189
     101 ->105         0.15591
     102 ->105         0.16393
     102 ->107         0.47417

 Excited State  17:      Singlet-A      5.5919 eV  221.72 nm  f=0.0173  <S**2>=0.000
      96 ->104         0.48719
      97 ->104        -0.31333
     100 ->106         0.11417
     100 ->107        -0.10394
     100 ->109         0.13059
     101 ->105         0.12113
     101 ->106        -0.12277
     102 ->106         0.11543
     102 ->108        -0.16296

 Excited State  18:      Singlet-A      5.6284 eV  220.28 nm  f=0.0160  <S**2>=0.000
      97 ->104         0.32600
     100 ->108        -0.16818
     100 ->109         0.47823
     102 ->105         0.14369
     102 ->107         0.13194
     102 ->109         0.20727

 Excited State  19:      Singlet-A      5.6376 eV  219.93 nm  f=0.0336  <S**2>=0.000
      96 ->104         0.29679
      97 ->104         0.38869
     100 ->109        -0.31660
     102 ->105         0.17596
     102 ->107         0.16724
     102 ->109        -0.16155
     103 ->112        -0.13206

 Excited State  20:      Singlet-A      5.6830 eV  218.17 nm  f=0.0005  <S**2>=0.000
     101 ->110         0.58071
     102 ->110        -0.31134
     103 ->110         0.11257

 Excited State  21:      Singlet-A      5.7610 eV  215.21 nm  f=0.0266  <S**2>=0.000
      96 ->104         0.29222
      97 ->104        -0.16000
     100 ->105        -0.29187
     100 ->106        -0.17363
     100 ->107         0.12305
     101 ->105        -0.26179
     101 ->106         0.25118
     101 ->107         0.17777
     102 ->106        -0.12136
     102 ->108         0.19250

 Excited State  22:      Singlet-A      5.7668 eV  215.00 nm  f=0.0469  <S**2>=0.000
      97 ->104         0.14432
     100 ->105        -0.10166
     100 ->106        -0.11877
     100 ->107         0.11734
     101 ->105         0.12573
     101 ->106        -0.12358
     102 ->107         0.10924
     103 ->112         0.58929

 Excited State  23:      Singlet-A      5.8290 eV  212.70 nm  f=0.0904  <S**2>=0.000
     100 ->105         0.37386
     100 ->106         0.13951
     101 ->105        -0.28904
     101 ->106         0.18763
     101 ->107         0.10115
     102 ->105         0.14193
     102 ->107         0.21600
     102 ->111         0.15529
     103 ->112         0.22535

 Excited State  24:      Singlet-A      5.8575 eV  211.67 nm  f=0.0015  <S**2>=0.000
      99 ->109         0.19032
     100 ->109        -0.28659
     101 ->105        -0.10835
     102 ->108        -0.18730
     102 ->109         0.53603

 Excited State  25:      Singlet-A      5.8918 eV  210.44 nm  f=0.1923  <S**2>=0.000
     100 ->105         0.13795
     101 ->105         0.39111
     101 ->106         0.19159
     101 ->107         0.25340
     102 ->105         0.10577
     102 ->106        -0.33882
     102 ->107        -0.10866
     102 ->110        -0.18498

 Excited State  26:      Singlet-A      5.9226 eV  209.34 nm  f=0.0682  <S**2>=0.000
      99 ->110        -0.11726
     100 ->105         0.24783
     100 ->106        -0.14553
     100 ->107         0.20782
     101 ->110         0.22784
     102 ->105        -0.12357
     102 ->106        -0.20071
     102 ->107         0.15113
     102 ->109         0.10676
     102 ->110         0.32991
     103 ->113         0.24219

 Excited State  27:      Singlet-A      5.9391 eV  208.76 nm  f=0.1125  <S**2>=0.000
      99 ->110        -0.13677
     100 ->105        -0.12878
     100 ->106         0.12528
     100 ->107        -0.16524
     101 ->105         0.11341
     101 ->106         0.11595
     101 ->107         0.11793
     101 ->110         0.23115
     102 ->105         0.15536
     102 ->107        -0.13894
     102 ->110         0.42383
     103 ->112         0.12706
     103 ->113        -0.13994
     103 ->114         0.17802

 Excited State  28:      Singlet-A      5.9623 eV  207.95 nm  f=0.0684  <S**2>=0.000
     100 ->105        -0.15234
     100 ->107        -0.11890
     102 ->105         0.10419
     102 ->107        -0.14211
     103 ->113         0.59565
     103 ->115         0.10228

 Excited State  29:      Singlet-A      6.0114 eV  206.25 nm  f=0.0080  <S**2>=0.000
     103 ->113         0.16247
     103 ->114         0.59223
     103 ->115        -0.16999
     103 ->116         0.22059

 Excited State  30:      Singlet-A      6.0826 eV  203.83 nm  f=0.0005  <S**2>=0.000
      90 ->104        -0.31721
      91 ->104        -0.17004
      92 ->104        -0.26325
      94 ->104         0.49335

 Excited State  31:      Singlet-A      6.1036 eV  203.13 nm  f=0.0088  <S**2>=0.000
     103 ->115         0.41201
     103 ->116         0.52768

 Excited State  32:      Singlet-A      6.1492 eV  201.63 nm  f=0.0540  <S**2>=0.000
      99 ->107        -0.10972
     100 ->106         0.20161
     100 ->107        -0.16501
     100 ->108         0.22701
     100 ->111        -0.14782
     101 ->106        -0.12077
     101 ->107        -0.10778
     101 ->108        -0.10953
     101 ->111        -0.14480
     102 ->106        -0.16905
     102 ->108         0.43332
     102 ->109         0.15847

 Excited State  33:      Singlet-A      6.2002 eV  199.97 nm  f=0.0351  <S**2>=0.000
      95 ->104        -0.13333
      99 ->106        -0.10019
     100 ->108        -0.19723
     100 ->111         0.12172
     101 ->106        -0.10934
     102 ->107        -0.10237
     102 ->108         0.12429
     103 ->114         0.21727
     103 ->115         0.40008
     103 ->116        -0.29881

 Excited State  34:      Singlet-A      6.2079 eV  199.72 nm  f=0.0583  <S**2>=0.000
      95 ->104        -0.12409
      99 ->106         0.19200
     100 ->108         0.15868
     101 ->106         0.26535
     101 ->107        -0.11863
     101 ->108         0.24035
     101 ->111         0.23217
     102 ->107         0.19756
     102 ->111        -0.18403
     103 ->114         0.12417
     103 ->115         0.17749
     103 ->116        -0.17007

 Excited State  35:      Singlet-A      6.2436 eV  198.58 nm  f=0.0286  <S**2>=0.000
      94 ->104        -0.10356
      95 ->104         0.47042
     101 ->106         0.14226
     101 ->107        -0.26322
     102 ->111         0.28821
     103 ->115         0.15634

 Excited State  36:      Singlet-A      6.2460 eV  198.50 nm  f=0.0458  <S**2>=0.000
      99 ->105        -0.21930
     100 ->105         0.12266
     100 ->106        -0.12626
     100 ->108        -0.27044
     100 ->111         0.14637
     101 ->106         0.19169
     101 ->107        -0.20272
     102 ->106         0.11405
     102 ->108         0.30783
     102 ->109         0.10448
     103 ->115        -0.15092

 Excited State  37:      Singlet-A      6.2616 eV  198.01 nm  f=0.0042  <S**2>=0.000
      95 ->104         0.23109
      99 ->105        -0.11905
     101 ->106        -0.29958
     101 ->107         0.38286
     101 ->108         0.20225
     101 ->111         0.21380
     102 ->108         0.18431

 Excited State  38:      Singlet-A      6.2839 eV  197.31 nm  f=0.0045  <S**2>=0.000
     100 ->106         0.48563
     100 ->107         0.46680
     100 ->108        -0.12178

 Excited State  39:      Singlet-A      6.3552 eV  195.09 nm  f=0.0903  <S**2>=0.000
      91 ->104         0.21840
      93 ->104         0.33005
      94 ->104         0.13176
      99 ->105        -0.11187
     101 ->108         0.11391
     102 ->111         0.36071
     103 ->117        -0.26691

 Excited State  40:      Singlet-A      6.3601 eV  194.94 nm  f=0.0115  <S**2>=0.000
      91 ->104         0.14768
      93 ->104         0.18083
     102 ->111         0.14643
     103 ->115         0.10357
     103 ->117         0.56083
     103 ->118         0.17763
     103 ->119        -0.11239

 Excited State  41:      Singlet-A      6.3996 eV  193.74 nm  f=0.0006  <S**2>=0.000
      89 ->104         0.20512
      91 ->104        -0.29657
      92 ->104        -0.29992
      93 ->104         0.40234
      94 ->104        -0.27836

 Excited State  42:      Singlet-A      6.4385 eV  192.57 nm  f=0.0826  <S**2>=0.000
      90 ->104         0.10637
      92 ->104         0.22297
      93 ->104         0.38664
      94 ->104         0.21670
      95 ->104         0.29057
     102 ->111        -0.31938

 Excited State  43:      Singlet-A      6.4872 eV  191.12 nm  f=0.0212  <S**2>=0.000
      89 ->104         0.14581
      91 ->104        -0.38780
      92 ->104         0.41118
      94 ->104         0.14814
      95 ->104        -0.20575
     102 ->111         0.18072

 Excited State  44:      Singlet-A      6.5113 eV  190.41 nm  f=0.0395  <S**2>=0.000
      99 ->105         0.53849
      99 ->107         0.30950
     100 ->108        -0.12952
     101 ->108         0.11448

 Excited State  45:      Singlet-A      6.5832 eV  188.34 nm  f=0.0067  <S**2>=0.000
      87 ->104         0.10200
      90 ->104         0.55168
      92 ->104        -0.30137
      94 ->104         0.20608

 Excited State  46:      Singlet-A      6.5859 eV  188.26 nm  f=0.0048  <S**2>=0.000
     103 ->117        -0.15686
     103 ->118         0.62231
     103 ->121        -0.14750

 Excited State  47:      Singlet-A      6.6320 eV  186.95 nm  f=0.1930  <S**2>=0.000
      89 ->104         0.13241
      99 ->105        -0.14043
      99 ->106        -0.29264
      99 ->107         0.44819
     100 ->108         0.26454
     101 ->108        -0.12154

 Excited State  48:      Singlet-A      6.6341 eV  186.89 nm  f=0.0566  <S**2>=0.000
      99 ->106         0.20705
     101 ->108        -0.36030
     101 ->109         0.53669

 Excited State  49:      Singlet-A      6.6539 eV  186.33 nm  f=0.2301  <S**2>=0.000
      89 ->104         0.20509
      91 ->104         0.13349
      99 ->106         0.41553
      99 ->107         0.20721
     101 ->108        -0.22966
     101 ->109        -0.32843

 Excited State  50:      Singlet-A      6.6633 eV  186.07 nm  f=0.0098  <S**2>=0.000
      83 ->104         0.10513
      86 ->104         0.19846
      88 ->104        -0.14928
      89 ->104         0.42037
      91 ->104         0.31519
      99 ->107        -0.17951
     101 ->108         0.14641
     101 ->109         0.16076

 Excited State  51:      Singlet-A      6.6993 eV  185.07 nm  f=0.0533  <S**2>=0.000
      99 ->106        -0.16187
      99 ->107        -0.13854
      99 ->109        -0.14364
     101 ->108        -0.24377
     101 ->109        -0.13990
     101 ->111         0.45891
     103 ->119         0.25067
     103 ->120        -0.16163

 Excited State  52:      Singlet-A      6.7186 eV  184.54 nm  f=0.0371  <S**2>=0.000
      98 ->109        -0.10245
      99 ->105        -0.10047
      99 ->109        -0.26119
     101 ->109         0.14358
     101 ->111        -0.27443
     103 ->119         0.37358
     103 ->120        -0.26800

 Excited State  53:      Singlet-A      6.7566 eV  183.50 nm  f=0.0010  <S**2>=0.000
      98 ->109         0.17119
      99 ->108        -0.19241
      99 ->109         0.47508
     102 ->109        -0.16296
     103 ->119         0.28615
     103 ->120        -0.17599

 Excited State  54:      Singlet-A      6.7613 eV  183.37 nm  f=0.0003  <S**2>=0.000
     100 ->110         0.70004

 Excited State  55:      Singlet-A      6.7968 eV  182.42 nm  f=0.0032  <S**2>=0.000
      84 ->104        -0.12075
      85 ->104        -0.15504
      86 ->104        -0.16360
      88 ->104         0.48154
      89 ->104         0.24223
     100 ->111         0.14590
     103 ->119         0.20509
     103 ->120         0.11431

 Excited State  56:      Singlet-A      6.8128 eV  181.99 nm  f=0.0089  <S**2>=0.000
     100 ->108         0.26200
     100 ->111         0.58471
     103 ->119        -0.13338
     103 ->120        -0.12496

 Excited State  57:      Singlet-A      6.8385 eV  181.30 nm  f=0.0020  <S**2>=0.000
      88 ->104        -0.22000
      99 ->110        -0.23511
     100 ->111         0.12418
     103 ->119         0.23883
     103 ->120         0.47627

 Excited State  58:      Singlet-A      6.8833 eV  180.12 nm  f=0.0006  <S**2>=0.000
      98 ->110        -0.21223
      99 ->110         0.56888
     102 ->110         0.17456
     103 ->119         0.10930
     103 ->120         0.20542
     103 ->121        -0.10817

 Excited State  59:      Singlet-A      6.9590 eV  178.17 nm  f=0.0631  <S**2>=0.000
      87 ->104        -0.24048
      96 ->107        -0.13371
      97 ->106         0.10548
      98 ->105         0.10004
      99 ->108         0.53014
      99 ->109         0.19900

 Excited State  60:      Singlet-A      6.9693 eV  177.90 nm  f=0.0117  <S**2>=0.000
      85 ->104         0.10804
      87 ->104         0.59026
      90 ->104        -0.14721
      99 ->108         0.21179

 Excited State  61:      Singlet-A      7.0065 eV  176.96 nm  f=0.0037  <S**2>=0.000
     103 ->121        -0.39557
     103 ->122         0.52623

 Excited State  62:      Singlet-A      7.0401 eV  176.11 nm  f=0.0001  <S**2>=0.000
      86 ->104         0.56392
      87 ->104         0.11509
      88 ->104         0.26405
      89 ->104        -0.19022
     102 ->112         0.12812

 Excited State  63:      Singlet-A      7.0775 eV  175.18 nm  f=0.0043  <S**2>=0.000
     103 ->118         0.10581
     103 ->119         0.10369
     103 ->121         0.47556
     103 ->122         0.38735
     103 ->124        -0.12740
     103 ->125         0.16446

 Excited State  64:      Singlet-A      7.1033 eV  174.54 nm  f=0.0013  <S**2>=0.000
      82 ->104        -0.13700
      84 ->104         0.10965
      85 ->104         0.53584
      88 ->104         0.15357
      89 ->104         0.17887
      99 ->111        -0.18040
     102 ->112         0.15786

 Excited State  65:      Singlet-A      7.1448 eV  173.53 nm  f=0.0011  <S**2>=0.000
      85 ->104         0.17792
      86 ->104         0.10290
      96 ->106        -0.10787
      97 ->106         0.15961
      97 ->107         0.17335
      98 ->105         0.30340
      98 ->108        -0.12544
      99 ->111         0.43091
     103 ->123         0.13954

 Excited State  66:      Singlet-A      7.1659 eV  173.02 nm  f=0.0095  <S**2>=0.000
      96 ->106         0.10441
      98 ->105         0.44765
      99 ->108        -0.14586
      99 ->111        -0.29772
     103 ->123         0.29556

 Excited State  67:      Singlet-A      7.2094 eV  171.98 nm  f=0.0059  <S**2>=0.000
      84 ->104         0.11932
      98 ->105        -0.28132
     103 ->123         0.56731

 Excited State  68:      Singlet-A      7.2475 eV  171.07 nm  f=0.0008  <S**2>=0.000
      82 ->104        -0.10946
      83 ->104         0.15050
      84 ->104         0.57226
      85 ->104        -0.13272
      86 ->104        -0.13626
      98 ->105         0.14273

 Excited State  69:      Singlet-A      7.2799 eV  170.31 nm  f=0.0035  <S**2>=0.000
      96 ->108        -0.13620
      96 ->109         0.44835
      97 ->109         0.10026
      98 ->109        -0.10020
     103 ->122        -0.10144
     103 ->124        -0.32405
     103 ->125         0.28225

 Excited State  70:      Singlet-A      7.3046 eV  169.74 nm  f=0.0108  <S**2>=0.000
      96 ->108        -0.12871
      96 ->109         0.37319
      97 ->109         0.10061
     103 ->122         0.10145
     103 ->124         0.46294

 Excited State  71:      Singlet-A      7.3272 eV  169.21 nm  f=0.0252  <S**2>=0.000
      81 ->104        -0.14618
      83 ->104         0.34115
      97 ->105        -0.26972
      97 ->106         0.17281
      97 ->110         0.10714
      98 ->106         0.24015
      98 ->107         0.17837
     102 ->112         0.10322
     103 ->124        -0.11302
     103 ->125         0.11062

 Excited State  72:      Singlet-A      7.3387 eV  168.94 nm  f=0.0245  <S**2>=0.000
      81 ->104        -0.23591
      83 ->104         0.38300
      84 ->104        -0.10376
      85 ->104         0.13637
      97 ->105         0.21177
      97 ->110        -0.13953
      98 ->106        -0.20087
      98 ->107        -0.19088
     103 ->125        -0.13062

 Excited State  73:      Singlet-A      7.3445 eV  168.81 nm  f=0.0561  <S**2>=0.000
      96 ->105         0.42628
      96 ->106         0.15632
      96 ->108         0.15707
      98 ->105        -0.10289
      98 ->106        -0.28132
      98 ->107         0.31028

 Excited State  74:      Singlet-A      7.3592 eV  168.47 nm  f=0.0069  <S**2>=0.000
      96 ->109        -0.13157
      98 ->105         0.11460
      98 ->106        -0.12879
     103 ->124         0.28045
     103 ->125         0.51998
     103 ->126         0.13102

 Excited State  75:      Singlet-A      7.3720 eV  168.18 nm  f=0.0026  <S**2>=0.000
      96 ->110        -0.11357
      97 ->110         0.57322
      98 ->106        -0.15313

 The electronic state is 1-A.
 Alpha  occ. eigenvalues --  -89.07776 -89.07594 -14.47560 -14.47219 -10.34065
 Alpha  occ. eigenvalues --  -10.33672 -10.29697 -10.29571 -10.28510 -10.28426
 Alpha  occ. eigenvalues --  -10.27461 -10.27287 -10.25819 -10.25802 -10.24931
 Alpha  occ. eigenvalues --  -10.24857 -10.24683 -10.24574 -10.24301 -10.24169
 Alpha  occ. eigenvalues --  -10.24071 -10.23953 -10.23926 -10.23847 -10.23173
 Alpha  occ. eigenvalues --  -10.21888 -10.21742  -8.05570  -8.05388  -5.99204
 Alpha  occ. eigenvalues --   -5.99030  -5.98851  -5.98676  -5.98488  -5.98292
 Alpha  occ. eigenvalues --   -1.04750  -1.04611  -0.90529  -0.90429  -0.87705
 Alpha  occ. eigenvalues --   -0.87181  -0.85345  -0.82925  -0.80472  -0.79801
 Alpha  occ. eigenvalues --   -0.79375  -0.77644  -0.77113  -0.76192  -0.72896
 Alpha  occ. eigenvalues --   -0.68676  -0.67985  -0.67835  -0.65567  -0.64652
 Alpha  occ. eigenvalues --   -0.63340  -0.62406  -0.60080  -0.58870  -0.58169
 Alpha  occ. eigenvalues --   -0.54582  -0.54483  -0.54110  -0.53066  -0.51338
 Alpha  occ. eigenvalues --   -0.50597  -0.49207  -0.49172  -0.48191  -0.48010
 Alpha  occ. eigenvalues --   -0.47571  -0.47468  -0.46687  -0.45480  -0.45235
 Alpha  occ. eigenvalues --   -0.44918  -0.43507  -0.42498  -0.42074  -0.41961
 Alpha  occ. eigenvalues --   -0.41370  -0.40884  -0.40210  -0.39644  -0.39182
 Alpha  occ. eigenvalues --   -0.38733  -0.38567  -0.38430  -0.38114  -0.37461
 Alpha  occ. eigenvalues --   -0.36981  -0.36681  -0.36601  -0.36416  -0.35765
 Alpha  occ. eigenvalues --   -0.33404  -0.33336  -0.31885  -0.28799  -0.26735
 Alpha  occ. eigenvalues --   -0.26626  -0.25608  -0.19874
 Alpha virt. eigenvalues --   -0.10143  -0.03229  -0.02649  -0.02587  -0.01199
 Alpha virt. eigenvalues --   -0.01033  -0.00595  -0.00180   0.04037   0.04985
 Alpha virt. eigenvalues --    0.05289   0.05746   0.05964   0.06644   0.07208

 Mulliken charges:
               1
     1  C   -0.392416
     2  C   -0.031939
     3  C   -0.310749
     4  C   -0.003499
     5  C    0.236069
     6  S    0.016292
     7  C    0.025348
     8  C    0.179903
     9  N    0.111058
    10  C   -0.199072
    11  C   -0.171818
    12  C   -0.122997
    13  C   -0.319551
    14  C   -0.168180
    15  C   -0.426343
    16  C   -0.440138
    17  C    0.250366
    18  S    0.048100
    19  C    0.009579
    20  C    0.186076
    21  N    0.117312
    22  C   -0.197811
    23  C   -0.166212
    24  C   -0.128244
    25  C   -0.316906
    26  C   -0.201776
    27  C   -0.424719
    28  H    0.176445
    29  H    0.160600
    30  H    0.150908
    31  H    0.175090
    32  H    0.175000
    33  H    0.167317
    34  H    0.168380
    35  H    0.177016
    36  H    0.167573
    37  H    0.169163
    38  H    0.154558
    39  H    0.155736
    40  H    0.153569
    41  H    0.175050
    42  H    0.174879
    43  H    0.167900
    44  H    0.168934
    45  H    0.181704
    46  H    0.177363
    47  H    0.173622
    48  H    0.160730
    49  H    0.155724
    50  H    0.155004
 Sum of Mulliken charges =   1.00000

 Dipole moment (field-independent basis, Debye):
    X=             -1.0427    Y=             -0.0330    Z=             -1.0333  Tot=              1.4684
 Quadrupole moment (field-independent basis, Debye-Ang):
   XX=            -11.3080   YY=           -134.2416   ZZ=           -179.3945
   XY=            -21.6358   XZ=              1.2174   YZ=             -0.9194

 Normal termination of Gaussian 16 at Sun Nov  5 19:43:51 2023.
