 Gaussian 16, Revision C.02,
 Gaussian 16:  ES64L-G16RevC.02  7-Dec-2021

 --------------------------------------------------------------
 # td=(nstates=150) PBE1PBE/def2TZVP scrf(smd, solvent=ethanol)
 --------------------------------------------------------------

 ---
 A-1
 ---
 Symbolic Z-matrix:
 Charge =  1 Multiplicity = 1

                         Standard orientation:
 ---------------------------------------------------------------------
 Center     Atomic      Atomic             Coordinates (Angstroms)
 Number     Number       Type             X           Y           Z
 ---------------------------------------------------------------------
      1          6           0       -1.259214    0.216698   -0.039367
      2          6           0        0.000003    0.828935   -0.000122
      3          6           0        1.259209    0.216684    0.039249
      4          7           0        2.433464    0.904848    0.145998
      5         16           0       -1.557561   -1.512152    0.053882
      6          6           0       -3.297665   -1.258824   -0.027283
      7          6           0       -3.589904    0.108866   -0.118299
      8          7           0       -2.433474    0.904863   -0.146106
      9         16           0        1.557549   -1.512171   -0.053923
     10          6           0        3.297657   -1.258850    0.027304
     11          6           0        3.589900    0.108842    0.118251
     12          6           0       -4.301571   -2.224422   -0.003624
     13          6           0       -5.624645   -1.792125   -0.066975
     14          6           0       -5.925643   -0.425687   -0.149009
     15          6           0       -4.920394    0.538274   -0.174272
     16          6           0        4.301563   -2.224450    0.003718
     17          6           0        5.624635   -1.792149    0.067066
     18          6           0        5.925635   -0.425707    0.149021
     19          6           0        4.920384    0.538258    0.174213
     20          6           0       -2.510348    2.373529   -0.257226
     21          6           0       -2.566433    3.073786    1.101522
     22          6           0        2.510339    2.373497    0.257299
     23          6           0        2.566508    3.073929   -1.101357
     24          1           0        0.000014    1.909040   -0.000214
     25          1           0       -4.060576   -3.280313    0.063971
     26          1           0       -6.427238   -2.522132   -0.049094
     27          1           0       -6.962056   -0.106514   -0.191342
     28          1           0       -5.176748    1.590213   -0.228130
     29          1           0        4.060566   -3.280345   -0.063815
     30          1           0        6.427230   -2.522156    0.049231
     31          1           0        6.962048   -0.106532    0.191339
     32          1           0        5.176733    1.590201    0.228019
     33          1           0       -1.657488    2.708489   -0.852128
     34          1           0       -3.398115    2.597174   -0.852215
     35          1           0       -3.441185    2.752064    1.674572
     36          1           0       -1.673838    2.863356    1.699082
     37          1           0       -2.634230    4.156364    0.954302
     38          1           0        1.657436    2.708379    0.852183
     39          1           0        3.398074    2.597059    0.852370
     40          1           0        3.441334    2.752344   -1.674368
     41          1           0        1.673988    2.863510   -1.699033
     42          1           0        2.634214    4.156493   -0.953990
 ---------------------------------------------------------------------

 SCF Done:  E(RPBE1PBE) =  -1640.30229808     A.U. after   12 cycles

 Excitation energies and oscillator strengths:

 Excited State   1:      Singlet-A      3.2128 eV  385.91 nm  f=1.2249  <S**2>=0.000
      89 -> 90         0.70443
 This state for optimization and/or second-order correction.
 Total Energy, E(TD-HF/TD-DFT) =  -1640.18422929
 Copying the excited state density for this state as the 1-particle RhoCI density.

 Excited State   2:      Singlet-A      3.9432 eV  314.43 nm  f=0.0007  <S**2>=0.000
      89 -> 91         0.69791

 Excited State   3:      Singlet-A      4.2175 eV  293.97 nm  f=0.0223  <S**2>=0.000
      88 -> 90         0.60258
      89 -> 92        -0.34090

 Excited State   4:      Singlet-A      4.3604 eV  284.34 nm  f=0.0067  <S**2>=0.000
      87 -> 90         0.63181
      89 -> 93        -0.28921

 Excited State   5:      Singlet-A      4.5365 eV  273.31 nm  f=0.0462  <S**2>=0.000
      88 -> 90         0.33820
      89 -> 92         0.59717

 Excited State   6:      Singlet-A      4.6625 eV  265.92 nm  f=0.0440  <S**2>=0.000
      87 -> 90         0.29071
      89 -> 93         0.61399

 Excited State   7:      Singlet-A      4.6782 eV  265.03 nm  f=0.0037  <S**2>=0.000
      86 -> 90         0.68359

 Excited State   8:      Singlet-A      4.9205 eV  251.98 nm  f=0.0871  <S**2>=0.000
      87 -> 92         0.12175
      88 -> 90        -0.10219
      88 -> 93         0.10335
      89 -> 94         0.65776

 Excited State   9:      Singlet-A      5.0839 eV  243.88 nm  f=0.0001  <S**2>=0.000
      86 -> 91         0.18013
      87 -> 96         0.11978
      88 -> 91         0.59836
      89 -> 96        -0.27248

 Excited State  10:      Singlet-A      5.1056 eV  242.84 nm  f=0.0094  <S**2>=0.000
      87 -> 93         0.10190
      88 -> 92         0.13203
      89 -> 95         0.66191

 Excited State  11:      Singlet-A      5.3193 eV  233.09 nm  f=0.0001  <S**2>=0.000
      86 -> 91        -0.24198
      88 -> 91         0.32508
      89 -> 96         0.57437

 Excited State  12:      Singlet-A      5.3260 eV  232.79 nm  f=0.0100  <S**2>=0.000
      87 -> 91         0.67592
      88 -> 96         0.14277

 Excited State  13:      Singlet-A      5.4702 eV  226.65 nm  f=0.2855  <S**2>=0.000
      85 -> 90         0.51238
      86 -> 92         0.15364
      87 -> 93        -0.18559
      87 -> 95         0.14632
      88 -> 92        -0.29260
      88 -> 94         0.19998
      89 -> 93         0.10999
      89 -> 95         0.10120

 Excited State  14:      Singlet-A      5.6497 eV  219.45 nm  f=0.0003  <S**2>=0.000
      86 -> 91         0.62885
      89 -> 96         0.29380

 Excited State  15:      Singlet-A      5.7941 eV  213.98 nm  f=0.2100  <S**2>=0.000
      84 -> 90        -0.15502
      85 -> 92        -0.11229
      86 -> 90         0.11318
      86 -> 93        -0.30309
      86 -> 95        -0.12932
      87 -> 92         0.36703
      87 -> 94        -0.19644
      88 -> 93         0.27057
      88 -> 95        -0.17470
      89 -> 92        -0.10779
      89 -> 94        -0.18999

 Excited State  16:      Singlet-A      5.8133 eV  213.28 nm  f=0.1919  <S**2>=0.000
      85 -> 90         0.33554
      86 -> 94        -0.15501
      87 -> 93         0.12594
      88 -> 92         0.53345
      89 -> 95        -0.14996

 Excited State  17:      Singlet-A      5.8243 eV  212.87 nm  f=0.0002  <S**2>=0.000
      85 -> 90        -0.30537
      85 -> 93         0.12502
      86 -> 92         0.45510
      87 -> 95         0.18345
      88 -> 92         0.10896
      88 -> 94         0.31635
      89 -> 93         0.10785

 Excited State  18:      Singlet-A      5.9037 eV  210.01 nm  f=0.0683  <S**2>=0.000
      84 -> 90        -0.27802
      85 -> 92         0.10564
      86 -> 93         0.30575
      87 -> 92         0.17179
      87 -> 94         0.28691
      88 -> 93         0.33816
      88 -> 95         0.26414

 Excited State  19:      Singlet-A      6.0230 eV  205.85 nm  f=0.0077  <S**2>=0.000
      84 -> 90        -0.17537
      89 -> 97         0.67439

 Excited State  20:      Singlet-A      6.0917 eV  203.53 nm  f=0.0004  <S**2>=0.000
      84 -> 90         0.58386
      87 -> 92         0.10918
      88 -> 93         0.30414
      89 -> 97         0.17117

 Excited State  21:      Singlet-A      6.0994 eV  203.27 nm  f=0.0009  <S**2>=0.000
      86 -> 93         0.10377
      87 -> 92         0.53379
      88 -> 93        -0.42263

 Excited State  22:      Singlet-A      6.1134 eV  202.81 nm  f=0.0236  <S**2>=0.000
      83 -> 90         0.41293
      87 -> 93         0.30066
      88 -> 92        -0.22235
      89 -> 98        -0.39545
      89 -> 99         0.10034

 Excited State  23:      Singlet-A      6.1453 eV  201.75 nm  f=0.0477  <S**2>=0.000
      83 -> 90         0.19390
      86 -> 94        -0.12292
      87 -> 93         0.31331
      88 -> 92        -0.13740
      89 -> 98         0.52380
      89 -> 99        -0.14544

 Excited State  24:      Singlet-A      6.1988 eV  200.01 nm  f=0.0721  <S**2>=0.000
      83 -> 90         0.50058
      87 -> 93        -0.44930
      89 -> 98         0.10510

 Excited State  25:      Singlet-A      6.3144 eV  196.35 nm  f=0.6632  <S**2>=0.000
      86 -> 92        -0.43590
      88 -> 94         0.51503

 Excited State  26:      Singlet-A      6.4827 eV  191.25 nm  f=0.0084  <S**2>=0.000
      82 -> 90        -0.18860
      85 -> 91        -0.25656
      89 -> 98         0.16256
      89 -> 99         0.57302
      89 ->101        -0.14990

 Excited State  27:      Singlet-A      6.4969 eV  190.84 nm  f=0.0031  <S**2>=0.000
      86 -> 93         0.48412
      87 -> 94        -0.14957
      88 -> 95        -0.45496

 Excited State  28:      Singlet-A      6.5015 eV  190.70 nm  f=0.0037  <S**2>=0.000
      86 -> 93        -0.16016
      86 -> 95        -0.13026
      87 -> 94         0.54856
      88 -> 95        -0.37968

 Excited State  29:      Singlet-A      6.5309 eV  189.84 nm  f=0.0014  <S**2>=0.000
      82 -> 90         0.53139
      85 -> 91        -0.32850
      86 -> 94        -0.14591
      86 -> 96        -0.12879
      87 -> 95        -0.17529
      88 -> 96        -0.10372

 Excited State  30:      Singlet-A      6.5516 eV  189.24 nm  f=0.0133  <S**2>=0.000
      82 -> 90         0.26693
      86 -> 92        -0.14553
      86 -> 94         0.35604
      87 -> 95         0.44100
      88 -> 94        -0.19225
      88 -> 97        -0.10394

 Excited State  31:      Singlet-A      6.5631 eV  188.91 nm  f=0.0045  <S**2>=0.000
      82 -> 90         0.28172
      85 -> 91         0.48702
      86 -> 96         0.21817
      89 -> 99         0.28646
      89 ->101        -0.12718

 Excited State  32:      Singlet-A      6.6417 eV  186.68 nm  f=0.2531  <S**2>=0.000
      84 -> 92        -0.11258
      86 -> 94         0.47613
      87 -> 93         0.12431
      87 -> 95        -0.37422
      88 -> 96        -0.20485

 Excited State  33:      Singlet-A      6.6786 eV  185.64 nm  f=0.0278  <S**2>=0.000
      82 -> 90         0.10360
      83 -> 91         0.14960
      84 -> 96        -0.10338
      86 -> 94         0.12397
      87 -> 91        -0.14475
      87 -> 95        -0.16476
      88 -> 96         0.60116

 Excited State  34:      Singlet-A      6.7551 eV  183.54 nm  f=0.1917  <S**2>=0.000
      83 -> 92         0.11835
      84 -> 93        -0.10998
      86 -> 93        -0.11033
      86 -> 95         0.64052

 Excited State  35:      Singlet-A      6.8253 eV  181.65 nm  f=0.0008  <S**2>=0.000
      83 -> 96         0.13648
      84 -> 91        -0.41371
      87 -> 96         0.50180
      88 -> 91        -0.15375

 Excited State  36:      Singlet-A      6.8573 eV  180.81 nm  f=0.0023  <S**2>=0.000
      79 -> 90        -0.13226
      81 -> 90         0.66911
      89 ->100         0.12192

 Excited State  37:      Singlet-A      6.8721 eV  180.42 nm  f=0.0010  <S**2>=0.000
      81 -> 90        -0.10060
      84 -> 91         0.26245
      87 -> 96         0.10723
      89 ->100         0.60507
      89 ->105         0.11362

 Excited State  38:      Singlet-A      6.9063 eV  179.52 nm  f=0.0020  <S**2>=0.000
      76 -> 90         0.10957
      84 -> 91         0.45049
      87 -> 96         0.44165
      89 ->100        -0.25427

 Excited State  39:      Singlet-A      6.9365 eV  178.74 nm  f=0.0000  <S**2>=0.000
      80 -> 90        -0.21380
      89 -> 99         0.15807
      89 ->101         0.61093
      89 ->104         0.17215

 Excited State  40:      Singlet-A      6.9432 eV  178.57 nm  f=0.0152  <S**2>=0.000
      80 -> 90         0.66543
      89 ->101         0.19309

 Excited State  41:      Singlet-A      7.0270 eV  176.44 nm  f=0.0008  <S**2>=0.000
      83 -> 91         0.60037
      84 -> 96        -0.12147
      86 -> 96         0.23967
      88 -> 96        -0.21382

 Excited State  42:      Singlet-A      7.0419 eV  176.07 nm  f=0.0023  <S**2>=0.000
      76 -> 90        -0.14728
      78 -> 90         0.48803
      79 -> 90        -0.44102

 Excited State  43:      Singlet-A      7.0556 eV  175.72 nm  f=0.0006  <S**2>=0.000
      71 -> 90         0.13236
      76 -> 90         0.51372
      78 -> 90         0.35510
      79 -> 90         0.21218

 Excited State  44:      Singlet-A      7.1096 eV  174.39 nm  f=0.0084  <S**2>=0.000
      83 -> 91        -0.23490
      85 -> 91        -0.26940
      86 -> 96         0.58849

 Excited State  45:      Singlet-A      7.1185 eV  174.17 nm  f=0.0060  <S**2>=0.000
      85 -> 92         0.65998
      87 -> 94        -0.10963

 Excited State  46:      Singlet-A      7.1887 eV  172.47 nm  f=0.0402  <S**2>=0.000
      84 -> 92        -0.11138
      85 -> 93        -0.18494
      87 -> 95         0.11603
      88 -> 97         0.63733

 Excited State  47:      Singlet-A      7.2076 eV  172.02 nm  f=0.0048  <S**2>=0.000
      71 -> 90        -0.10261
      76 -> 90        -0.34817
      78 -> 90         0.30243
      79 -> 90         0.41175
      81 -> 90         0.10682
      83 -> 92         0.14168
      84 -> 93        -0.14338
      89 ->103        -0.14464

 Excited State  48:      Singlet-A      7.2278 eV  171.54 nm  f=0.1367  <S**2>=0.000
      84 -> 92        -0.11530
      84 -> 94         0.11369
      85 -> 93         0.61274
      88 -> 97         0.18851

 Excited State  49:      Singlet-A      7.2657 eV  170.64 nm  f=0.0022  <S**2>=0.000
      77 -> 90         0.67722

 Excited State  50:      Singlet-A      7.2845 eV  170.20 nm  f=0.0021  <S**2>=0.000
      89 ->102         0.56459
      89 ->103         0.36051
      89 ->108         0.12027

 Excited State  51:      Singlet-A      7.3422 eV  168.87 nm  f=0.0001  <S**2>=0.000
      83 -> 92         0.14746
      84 -> 93        -0.15677
      87 -> 97         0.64110

 Excited State  52:      Singlet-A      7.3720 eV  168.18 nm  f=0.1237  <S**2>=0.000
      82 -> 91        -0.18653
      83 -> 93        -0.25282
      84 -> 92         0.46387
      85 -> 93         0.12140
      85 -> 95        -0.18753
      86 -> 94         0.14484
      86 -> 97         0.11093
      88 -> 97         0.14880
      89 ->104        -0.20330

 Excited State  53:      Singlet-A      7.3985 eV  167.58 nm  f=0.0441  <S**2>=0.000
      83 -> 92         0.21636
      84 -> 93        -0.18343
      85 -> 94         0.16142
      87 -> 97        -0.10872
      89 ->100        -0.10963
      89 ->102        -0.26890
      89 ->103         0.42387
      89 ->105         0.26741

 Excited State  54:      Singlet-A      7.3998 eV  167.55 nm  f=0.0168  <S**2>=0.000
      84 -> 92         0.17657
      89 ->101        -0.14591
      89 ->104         0.60636
      89 ->106         0.15679

 Excited State  55:      Singlet-A      7.4138 eV  167.23 nm  f=0.0503  <S**2>=0.000
      75 -> 90        -0.11506
      78 -> 90        -0.10506
      79 -> 90        -0.15794
      83 -> 92         0.22870
      84 -> 93        -0.20284
      85 -> 94         0.42597
      86 -> 95        -0.14984
      87 -> 97        -0.17243
      89 ->102         0.13308
      89 ->103        -0.22206
      89 ->105        -0.13947

 Excited State  56:      Singlet-A      7.4538 eV  166.34 nm  f=0.0001  <S**2>=0.000
      75 -> 90         0.65952

 Excited State  57:      Singlet-A      7.5164 eV  164.95 nm  f=0.0001  <S**2>=0.000
      88 -> 98         0.37023
      89 ->102         0.14822
      89 ->103        -0.23694
      89 ->105         0.48564

 Excited State  58:      Singlet-A      7.5278 eV  164.70 nm  f=0.0037  <S**2>=0.000
      82 -> 92         0.12761
      88 -> 98         0.54705
      88 -> 99        -0.11348
      89 ->103         0.14871
      89 ->105        -0.28317

 Excited State  59:      Singlet-A      7.5285 eV  164.69 nm  f=0.0063  <S**2>=0.000
      73 -> 90        -0.14093
      74 -> 90        -0.21481
      86 -> 97         0.61939

 Excited State  60:      Singlet-A      7.6299 eV  162.50 nm  f=0.0166  <S**2>=0.000
      72 -> 90        -0.11267
      73 -> 90        -0.15241
      74 -> 90         0.61141
      82 -> 91         0.10301
      86 -> 97         0.14476

 Excited State  61:      Singlet-A      7.6395 eV  162.29 nm  f=0.5615  <S**2>=0.000
      83 -> 92        -0.31216
      84 -> 93         0.26798
      85 -> 94         0.48516
      87 -> 97         0.13170
      89 ->103         0.10471

 Excited State  62:      Singlet-A      7.6525 eV  162.02 nm  f=0.0159  <S**2>=0.000
      82 -> 93         0.11846
      87 -> 98         0.55975
      88 ->100        -0.12845
      89 ->106        -0.31902

 Excited State  63:      Singlet-A      7.6546 eV  161.97 nm  f=0.0017  <S**2>=0.000
      78 -> 93         0.25602
      79 -> 93        -0.19334
      80 -> 92        -0.10471
      82 -> 92         0.52747
      88 -> 98        -0.13941
      88 -> 99        -0.12340
      89 ->105         0.12639

 Excited State  64:      Singlet-A      7.6801 eV  161.44 nm  f=0.1186  <S**2>=0.000
      78 -> 92         0.20879
      79 -> 92        -0.15509
      82 -> 91         0.29232
      82 -> 93         0.29665
      83 -> 93        -0.10174
      83 -> 95        -0.12069
      84 -> 94         0.20508
      89 ->106         0.32237

 Excited State  65:      Singlet-A      7.6964 eV  161.09 nm  f=0.0370  <S**2>=0.000
      82 -> 91        -0.14643
      82 -> 93        -0.14224
      87 -> 98         0.35146
      89 ->104        -0.12206
      89 ->106         0.48090

 Excited State  66:      Singlet-A      7.7080 eV  160.85 nm  f=0.1523  <S**2>=0.000
      78 -> 92        -0.17058
      79 -> 92         0.13479
      82 -> 91         0.23100
      82 -> 93        -0.27194
      83 -> 95        -0.18837
      84 -> 92         0.21458
      84 -> 94         0.33219
      85 -> 95         0.25770

 Excited State  67:      Singlet-A      7.7381 eV  160.23 nm  f=0.1106  <S**2>=0.000
      73 -> 90        -0.16923
      78 -> 92         0.12138
      82 -> 91        -0.20017
      82 -> 93         0.19518
      84 -> 92         0.12222
      85 -> 95         0.55691

 Excited State  68:      Singlet-A      7.7948 eV  159.06 nm  f=0.0016  <S**2>=0.000
      82 -> 92         0.12322
      85 -> 96        -0.11230
      86 -> 98        -0.20532
      87 ->100        -0.26626
      88 -> 99         0.54078

 Excited State  69:      Singlet-A      7.8168 eV  158.61 nm  f=0.0033  <S**2>=0.000
      85 -> 96         0.20146
      86 -> 98         0.55048
      86 -> 99        -0.18652
      87 ->100        -0.13400
      88 -> 99         0.23406
      89 ->105         0.11296

 Excited State  70:      Singlet-A      7.8307 eV  158.33 nm  f=0.0051  <S**2>=0.000
      72 -> 90         0.15255
      73 -> 90         0.44060
      74 -> 90         0.16305
      84 -> 94        -0.15047
      85 -> 95         0.16881
      86 -> 97         0.17432
      87 -> 99        -0.25140
      88 ->100         0.21621

 Excited State  71:      Singlet-A      7.8530 eV  157.88 nm  f=0.0052  <S**2>=0.000
      73 -> 90         0.32054
      84 -> 94        -0.11256
      87 -> 99         0.42284
      88 ->100        -0.35534

 Excited State  72:      Singlet-A      7.8682 eV  157.58 nm  f=0.0664  <S**2>=0.000
      83 -> 92         0.37485
      83 -> 94        -0.31420
      84 -> 93         0.39280
      84 -> 95         0.25017

 Excited State  73:      Singlet-A      7.9260 eV  156.43 nm  f=0.0064  <S**2>=0.000
      72 -> 90        -0.28620
      82 -> 91         0.14765
      82 -> 95        -0.10751
      83 -> 93         0.35074
      84 -> 92         0.22710
      84 -> 94        -0.14189
      89 ->107         0.35279

 Excited State  74:      Singlet-A      7.9265 eV  156.42 nm  f=0.0492  <S**2>=0.000
      83 -> 92         0.28777
      83 -> 94         0.38678
      84 -> 93         0.32869
      84 -> 95        -0.32013

 Excited State  75:      Singlet-A      7.9334 eV  156.28 nm  f=0.0033  <S**2>=0.000
      72 -> 90         0.42747
      78 -> 94         0.11838
      82 -> 95         0.14993
      83 -> 93         0.40812
      84 -> 92         0.24306

 Excited State  76:      Singlet-A      7.9529 eV  155.90 nm  f=0.0155  <S**2>=0.000
      72 -> 90         0.20895
      83 -> 93        -0.18780
      84 -> 92        -0.10139
      84 -> 94         0.13283
      89 ->107         0.57414

 Excited State  77:      Singlet-A      7.9939 eV  155.10 nm  f=0.0002  <S**2>=0.000
      71 -> 90        -0.14242
      79 -> 91         0.11141
      85 -> 96         0.51079
      86 -> 98        -0.30622
      86 -> 99        -0.21734
      88 ->101         0.11352

 Excited State  78:      Singlet-A      8.0108 eV  154.77 nm  f=0.0042  <S**2>=0.000
      69 -> 90        -0.13561
      71 -> 90         0.59043
      76 -> 90        -0.18061
      82 -> 94         0.11077
      85 -> 96         0.12687

 Excited State  79:      Singlet-A      8.0490 eV  154.04 nm  f=0.0007  <S**2>=0.000
      79 -> 91         0.13089
      81 -> 91         0.16549
      86 -> 99         0.14731
      87 ->100         0.10473
      88 ->101        -0.30246
      89 ->108         0.43768
      89 ->110         0.23509

 Excited State  80:      Singlet-A      8.0622 eV  153.78 nm  f=0.0554  <S**2>=0.000
      73 -> 90        -0.24673
      82 -> 91         0.39185
      83 -> 93        -0.20410
      84 -> 94        -0.38267
      85 -> 93         0.10206

 Excited State  81:      Singlet-A      8.0674 eV  153.69 nm  f=0.0000  <S**2>=0.000
      85 -> 96        -0.11859
      86 -> 99         0.15978
      87 ->100        -0.15628
      87 ->102         0.10157
      87 ->105         0.15135
      88 ->101         0.49714
      89 ->108         0.24758
      89 ->110         0.16531

 Excited State  82:      Singlet-A      8.1042 eV  152.99 nm  f=0.0003  <S**2>=0.000
      74 -> 92        -0.11726
      75 -> 93        -0.18619
      77 -> 92         0.18515
      78 -> 95         0.23584
      79 -> 95        -0.18009
      82 -> 94         0.47585

 Excited State  83:      Singlet-A      8.1282 eV  152.54 nm  f=0.0046  <S**2>=0.000
      87 -> 99        -0.24605
      87 ->101         0.49054
      88 ->100        -0.21206
      88 ->102         0.17227
      88 ->103         0.16351
      88 ->105         0.19750

 Excited State  84:      Singlet-A      8.1353 eV  152.40 nm  f=0.0005  <S**2>=0.000
      78 -> 91         0.12060
      79 -> 91         0.20872
      81 -> 91         0.33857
      85 -> 96         0.14215
      86 -> 98         0.13526
      86 -> 99         0.38973
      89 ->108        -0.24896
      89 ->110        -0.13576

 Excited State  85:      Singlet-A      8.1679 eV  151.79 nm  f=0.0028  <S**2>=0.000
      70 -> 90        -0.12909
      72 -> 90         0.25617
      74 -> 93         0.16772
      75 -> 92         0.32728
      77 -> 93        -0.24525
      78 -> 94        -0.16583
      79 -> 94         0.13477
      82 -> 93        -0.16876
      82 -> 95        -0.22628

 Excited State  86:      Singlet-A      8.1830 eV  151.51 nm  f=0.0000  <S**2>=0.000
      71 -> 90         0.19637
      74 -> 92        -0.19760
      75 -> 93        -0.30459
      77 -> 92         0.34733
      78 -> 93        -0.12093
      82 -> 94        -0.24466
      89 ->108        -0.11391

 Excited State  87:      Singlet-A      8.2172 eV  150.88 nm  f=0.0001  <S**2>=0.000
      70 -> 90         0.17745
      72 -> 90        -0.17501
      74 -> 93         0.14191
      75 -> 92         0.28813
      77 -> 93        -0.22525
      78 -> 94         0.21555
      79 -> 94        -0.17606
      82 -> 95         0.34185

 Excited State  88:      Singlet-A      8.2230 eV  150.78 nm  f=0.0004  <S**2>=0.000
      81 -> 91         0.44187
      85 -> 96        -0.29905
      86 -> 99        -0.36012

 Excited State  89:      Singlet-A      8.2507 eV  150.27 nm  f=0.0010  <S**2>=0.000
      89 ->109         0.52874

 The electronic state is 1-A.
 Alpha  occ. eigenvalues --  -89.08478 -89.08478 -14.47723 -14.47723 -10.34888
 Alpha  occ. eigenvalues --  -10.34887 -10.29924 -10.29924 -10.28761 -10.28761
 Alpha  occ. eigenvalues --  -10.27598 -10.27597 -10.25482 -10.25166 -10.25166
 Alpha  occ. eigenvalues --  -10.24833 -10.24833 -10.24319 -10.24319 -10.24066
 Alpha  occ. eigenvalues --  -10.24066 -10.21938 -10.21938  -8.06265  -8.06265
 Alpha  occ. eigenvalues --   -5.99903  -5.99903  -5.99545  -5.99545  -5.99180
 Alpha  occ. eigenvalues --   -5.99180  -1.05334  -1.04983  -0.90881  -0.90737
 Alpha  occ. eigenvalues --   -0.88569  -0.86397  -0.83334  -0.80399  -0.79972
 Alpha  occ. eigenvalues --   -0.78921  -0.77597  -0.76825  -0.74387  -0.68495
 Alpha  occ. eigenvalues --   -0.68235  -0.68033  -0.65520  -0.63546  -0.63481
 Alpha  occ. eigenvalues --   -0.61266  -0.58862  -0.55433  -0.54887  -0.54727
 Alpha  occ. eigenvalues --   -0.52746  -0.51912  -0.49998  -0.49766  -0.49145
 Alpha  occ. eigenvalues --   -0.47940  -0.47741  -0.47648  -0.47485  -0.45380
 Alpha  occ. eigenvalues --   -0.45084  -0.45030  -0.43724  -0.42304  -0.42144
 Alpha  occ. eigenvalues --   -0.41333  -0.40896  -0.40102  -0.39570  -0.39013
 Alpha  occ. eigenvalues --   -0.38657  -0.38381  -0.37601  -0.37497  -0.37070
 Alpha  occ. eigenvalues --   -0.36735  -0.36135  -0.34036  -0.33508  -0.31689
 Alpha  occ. eigenvalues --   -0.27901  -0.27225  -0.26714  -0.22333
 Alpha virt. eigenvalues --   -0.08224  -0.03658  -0.03167  -0.02562  -0.01673
 Alpha virt. eigenvalues --   -0.00886   0.01445   0.02838   0.03772   0.05504
 Alpha virt. eigenvalues --    0.05956   0.06666   0.07606   0.07902   0.07989

 Mulliken charges:
               1
     1  C    0.146282
     2  C   -0.398211
     3  C    0.146260
     4  N    0.115063
     5  S    0.025931
     6  C    0.032797
     7  C    0.171590
     8  N    0.115057
     9  S    0.025933
    10  C    0.032799
    11  C    0.171584
    12  C   -0.206666
    13  C   -0.165534
    14  C   -0.122901
    15  C   -0.309811
    16  C   -0.206661
    17  C   -0.165532
    18  C   -0.122905
    19  C   -0.309810
    20  C   -0.169750
    21  C   -0.429858
    22  C   -0.169750
    23  C   -0.429866
    24  H    0.213202
    25  H    0.177098
    26  H    0.168671
    27  H    0.169751
    28  H    0.178599
    29  H    0.177098
    30  H    0.168671
    31  H    0.169751
    32  H    0.178604
    33  H    0.168729
    34  H    0.173432
    35  H    0.155643
    36  H    0.156234
    37  H    0.157219
    38  H    0.168728
    39  H    0.173434
    40  H    0.155643
    41  H    0.156235
    42  H    0.157217
 Sum of Mulliken charges =   1.00000

 Dipole moment (field-independent basis, Debye):
    X=              0.0001    Y=              5.3628    Z=              0.0001  Tot=              5.3628
 Quadrupole moment (field-independent basis, Debye-Ang):
   XX=            -67.2132   YY=           -107.6482   ZZ=           -153.5024
   XY=             -0.0003   XZ=              2.2139   YZ=             -0.0005

 Normal termination of Gaussian 16 at Sat Nov  4 21:23:20 2023.
