 Gaussian 16, Revision C.02,
 Gaussian 16:  ES64L-G16RevC.02  7-Dec-2021

 ------------------------------------------------------------
 # td=(nstates=150) M062X/def2TZVP scrf(smd, solvent=ethanol)
 ------------------------------------------------------------

 ---
 A-3
 ---
 Symbolic Z-matrix:
 Charge =  1 Multiplicity = 1

                         Standard orientation:
 ---------------------------------------------------------------------
 Center     Atomic      Atomic             Coordinates (Angstroms)
 Number     Number       Type             X           Y           Z
 ---------------------------------------------------------------------
      1          6           0       -2.428041    1.066524   -0.253176
      2          6           0       -1.163701    0.479343   -0.188922
      3          6           0        0.041805    1.173916   -0.256816
      4          6           0        1.286450    0.541332   -0.181046
      5          6           0       -3.632364    0.360929   -0.172103
      6         16           0       -3.731682   -1.381240    0.072853
      7          6           0       -5.492381   -1.316150    0.079346
      8          6           0       -5.937414    0.002523   -0.102460
      9          7           0       -4.878726    0.909623   -0.261587
     10          6           0       -6.386349   -2.371189    0.240698
     11          6           0       -7.751214   -2.085245    0.223608
     12          6           0       -8.201765   -0.770406    0.051330
     13          6           0       -7.306986    0.285734   -0.111525
     14          6           0       -5.109277    2.349928   -0.473641
     15          6           0       -5.164583    3.142776    0.833251
     16          6           0        2.499506    1.229230   -0.203687
     17          6           0        3.822110    0.764058   -0.127091
     18         16           0        5.094002    1.944187    0.172030
     19          6           0        6.326179    0.693711    0.140374
     20          6           0        5.740783   -0.561555   -0.088266
     21          7           0        4.346445   -0.488644   -0.256376
     22          6           0        7.702092    0.835001    0.309547
     23          6           0        8.493059   -0.310930    0.250826
     24          6           0        7.913914   -1.567173    0.028296
     25          6           0        6.538273   -1.709565   -0.142327
     26          6           0        3.573454   -1.678630   -0.651238
     27          6           0        3.111260   -2.522112    0.538719
     28          1           0       -2.480232    2.144966   -0.359543
     29          1           0       -1.101764   -0.604050   -0.075964
     30          1           0        0.014895    2.256753   -0.370616
     31          1           0        1.271155   -0.537990   -0.061902
     32          1           0       -6.030956   -3.387372    0.377927
     33          1           0       -8.467850   -2.890478    0.348789
     34          1           0       -9.267265   -0.563876    0.046694
     35          1           0       -7.675558    1.298131   -0.232690
     36          1           0       -4.320988    2.718242   -1.133807
     37          1           0       -6.043470    2.442277   -1.031819
     38          1           0       -4.221825    3.066705    1.383681
     39          1           0       -5.350379    4.199206    0.614515
     40          1           0       -5.968923    2.780771    1.480961
     41          1           0        2.426074    2.314290   -0.229676
     42          1           0        8.144449    1.810753    0.482525
     43          1           0        9.567045   -0.226720    0.381606
     44          1           0        8.544040   -2.450028   -0.009720
     45          1           0        6.108776   -2.691785   -0.303762
     46          1           0        2.735494   -1.334144   -1.259472
     47          1           0        4.216087   -2.264286   -1.313807
     48          1           0        3.963720   -2.884064    1.121248
     49          1           0        2.464779   -1.951800    1.212975
     50          1           0        2.552692   -3.391803    0.177306
 ---------------------------------------------------------------------

 SCF Done:  E(RM062X) =  -1795.98112359     A.U. after   15 cycles

 Excitation energies and oscillator strengths:

 Excited State   1:      Singlet-A      2.2569 eV  549.35 nm  f=2.2701  <S**2>=0.000
     103 ->104         0.69718
 This state for optimization and/or second-order correction.
 Total Energy, E(TD-HF/TD-DFT) =  -1795.89818285
 Copying the excited state density for this state as the 1-particle RhoCI density.

 Excited State   2:      Singlet-A      4.1040 eV  302.10 nm  f=0.0650  <S**2>=0.000
     102 ->104         0.65015
     103 ->105        -0.21264

 Excited State   3:      Singlet-A      4.4458 eV  278.88 nm  f=0.0085  <S**2>=0.000
     101 ->104         0.47643
     101 ->105        -0.12541
     103 ->105        -0.31208
     103 ->106        -0.20331
     103 ->107        -0.27089

 Excited State   4:      Singlet-A      4.4731 eV  277.18 nm  f=0.0570  <S**2>=0.000
     100 ->104         0.46927
     100 ->105         0.11981
     101 ->104         0.19312
     102 ->104         0.12469
     102 ->107        -0.10737
     103 ->105         0.27028
     103 ->106        -0.24967
     103 ->107         0.17610

 Excited State   5:      Singlet-A      4.5031 eV  275.33 nm  f=0.0105  <S**2>=0.000
     100 ->104        -0.35511
     101 ->104         0.19553
     102 ->104         0.19507
     102 ->106        -0.11395
     103 ->105         0.47054
     103 ->107        -0.13060

 Excited State   6:      Singlet-A      4.5827 eV  270.55 nm  f=0.0088  <S**2>=0.000
     100 ->109        -0.14667
     102 ->109        -0.21759
     103 ->105         0.13207
     103 ->109         0.60752

 Excited State   7:      Singlet-A      4.6405 eV  267.18 nm  f=0.0016  <S**2>=0.000
     101 ->110        -0.15410
     102 ->110         0.21193
     103 ->110         0.61913

 Excited State   8:      Singlet-A      4.7170 eV  262.84 nm  f=0.1303  <S**2>=0.000
     101 ->104         0.37511
     102 ->106         0.11917
     103 ->106         0.42300
     103 ->107         0.32993

 Excited State   9:      Singlet-A      4.7674 eV  260.07 nm  f=0.0620  <S**2>=0.000
     100 ->104        -0.33052
     102 ->106         0.11056
     102 ->107        -0.10820
     103 ->106        -0.34782
     103 ->107         0.42895

 Excited State  10:      Singlet-A      5.0168 eV  247.14 nm  f=0.0344  <S**2>=0.000
      99 ->104         0.43366
     100 ->107         0.11229
     102 ->105         0.15303
     103 ->106         0.12934
     103 ->108         0.44168

 Excited State  11:      Singlet-A      5.1666 eV  239.97 nm  f=0.0219  <S**2>=0.000
      99 ->104         0.50444
     102 ->111         0.10626
     103 ->108        -0.45055

 Excited State  12:      Singlet-A      5.2994 eV  233.96 nm  f=0.0129  <S**2>=0.000
     101 ->106         0.10826
     101 ->107         0.10361
     102 ->108        -0.17787
     103 ->107        -0.12489
     103 ->111         0.60562

 Excited State  13:      Singlet-A      5.7560 eV  215.40 nm  f=0.0320  <S**2>=0.000
      98 ->104         0.37541
      99 ->105         0.14486
     100 ->106        -0.19235
     100 ->107         0.23580
     100 ->108        -0.15958
     101 ->106         0.12969
     101 ->107         0.14905
     101 ->108         0.10387
     102 ->106         0.11822
     103 ->105         0.10801
     103 ->107        -0.14664
     103 ->111        -0.25104

 Excited State  14:      Singlet-A      5.8247 eV  212.86 nm  f=0.3104  <S**2>=0.000
      99 ->104        -0.14966
      99 ->106         0.16933
     100 ->106        -0.15855
     100 ->107         0.23709
     100 ->108        -0.13321
     101 ->106        -0.22332
     101 ->107        -0.21930
     101 ->108        -0.16512
     101 ->111         0.12450
     102 ->105         0.23275
     102 ->107        -0.10171
     103 ->106         0.19908
     103 ->108        -0.19876

 Excited State  15:      Singlet-A      5.9156 eV  209.59 nm  f=0.0043  <S**2>=0.000
      96 ->109         0.18564
     100 ->109         0.54832
     101 ->110         0.14403
     102 ->109         0.10630
     103 ->109         0.22210

 Excited State  16:      Singlet-A      5.9685 eV  207.73 nm  f=0.0016  <S**2>=0.000
      97 ->110         0.18583
     100 ->109        -0.17720
     101 ->110         0.53974
     102 ->110        -0.12748
     103 ->110         0.23297
     103 ->112         0.10034

 Excited State  17:      Singlet-A      6.0331 eV  205.51 nm  f=0.0553  <S**2>=0.000
      98 ->104         0.53288
      99 ->107         0.13457
     100 ->106         0.10975
     100 ->107        -0.12426
     101 ->106        -0.12720
     101 ->107        -0.13673
     102 ->106        -0.15520

 Excited State  18:      Singlet-A      6.1193 eV  202.61 nm  f=0.0811  <S**2>=0.000
      99 ->106         0.13310
     101 ->105        -0.26527
     101 ->106         0.37099
     101 ->107         0.24167
     101 ->108        -0.17792
     101 ->111         0.15714
     102 ->106        -0.18345
     102 ->107        -0.21047
     103 ->106         0.10014

 Excited State  19:      Singlet-A      6.1321 eV  202.19 nm  f=0.0320  <S**2>=0.000
     100 ->105         0.19665
     100 ->106         0.17443
     100 ->107        -0.15656
     100 ->108        -0.13670
     101 ->110        -0.12331
     102 ->105         0.16455
     103 ->112         0.42918
     103 ->113         0.17445
     103 ->114        -0.18260

 Excited State  20:      Singlet-A      6.1532 eV  201.49 nm  f=0.0272  <S**2>=0.000
      99 ->107        -0.13058
     100 ->105         0.29331
     100 ->106         0.23493
     100 ->107        -0.19191
     100 ->108        -0.22726
     100 ->111        -0.11832
     102 ->106         0.16992
     102 ->107        -0.18885
     103 ->112        -0.23909
     103 ->113        -0.13603

 Excited State  21:      Singlet-A      6.2401 eV  198.69 nm  f=0.0070  <S**2>=0.000
      96 ->104        -0.21767
      97 ->104        -0.19643
     103 ->112         0.20363
     103 ->113        -0.12264
     103 ->114         0.42475
     103 ->115        -0.30507

 Excited State  22:      Singlet-A      6.2808 eV  197.40 nm  f=0.0595  <S**2>=0.000
      96 ->104        -0.18078
     100 ->106         0.10166
     100 ->107        -0.13395
     101 ->106         0.11176
     102 ->105         0.44572
     102 ->107         0.15805
     103 ->112        -0.26461
     103 ->113         0.13486
     103 ->115        -0.17743

 Excited State  23:      Singlet-A      6.3033 eV  196.70 nm  f=0.0277  <S**2>=0.000
      96 ->104         0.54105
      96 ->105         0.10263
     103 ->112        -0.10231
     103 ->113         0.12575
     103 ->114         0.19832
     103 ->115        -0.21993

 Excited State  24:      Singlet-A      6.3227 eV  196.09 nm  f=0.0288  <S**2>=0.000
      90 ->104         0.11977
      94 ->104        -0.13316
      97 ->104         0.56756
      97 ->105        -0.12305
     103 ->114         0.13015
     103 ->115        -0.13953

 Excited State  25:      Singlet-A      6.3399 eV  195.56 nm  f=0.0233  <S**2>=0.000
      90 ->104        -0.10200
      94 ->104         0.12250
      96 ->104        -0.14852
      97 ->104         0.11902
     102 ->105        -0.21517
     103 ->112        -0.10161
     103 ->113         0.45571
     103 ->116        -0.23677
     103 ->120         0.10221

 Excited State  26:      Singlet-A      6.3705 eV  194.62 nm  f=0.0120  <S**2>=0.000
      86 ->104        -0.12239
      88 ->104        -0.12605
      89 ->104         0.11604
      90 ->104        -0.30330
      91 ->104         0.18275
      92 ->104        -0.24536
      94 ->104         0.34027
      96 ->104         0.12218
      97 ->104         0.17527
     103 ->113        -0.19040

 Excited State  27:      Singlet-A      6.4113 eV  193.38 nm  f=0.0078  <S**2>=0.000
     102 ->105         0.15299
     103 ->114         0.25759
     103 ->115         0.38404
     103 ->116        -0.34814
     103 ->117         0.21341

 Excited State  28:      Singlet-A      6.5189 eV  190.19 nm  f=0.0380  <S**2>=0.000
      99 ->109         0.20372
     100 ->105        -0.10686
     100 ->109        -0.16701
     102 ->107        -0.10518
     102 ->109         0.24573
     103 ->113         0.11589
     103 ->114         0.16051
     103 ->116         0.32839
     103 ->117         0.24111
     103 ->118        -0.14275

 Excited State  29:      Singlet-A      6.5656 eV  188.84 nm  f=0.1371  <S**2>=0.000
      99 ->110         0.11498
     101 ->105         0.15506
     101 ->108         0.12716
     101 ->111        -0.10249
     102 ->106        -0.13223
     102 ->107        -0.16452
     102 ->110        -0.17746
     103 ->112        -0.13795
     103 ->113        -0.13381
     103 ->114        -0.20151
     103 ->115        -0.22649
     103 ->116        -0.10369
     103 ->117         0.22432
     103 ->119         0.25349

 Excited State  30:      Singlet-A      6.5788 eV  188.46 nm  f=0.6566  <S**2>=0.000
      99 ->106        -0.18608
      99 ->109         0.11249
     100 ->105         0.24778
     100 ->108        -0.21092
     101 ->105        -0.16270
     101 ->108        -0.13791
     102 ->105        -0.11868
     102 ->107         0.35534
     102 ->109         0.13779
     103 ->117         0.15354

 Excited State  31:      Singlet-A      6.5817 eV  188.38 nm  f=0.1809  <S**2>=0.000
      99 ->107        -0.18513
     100 ->105        -0.17483
     100 ->108         0.16584
     101 ->105        -0.25765
     101 ->108        -0.19088
     101 ->111         0.13081
     102 ->106         0.40030
     103 ->114        -0.13637
     103 ->119         0.12604

 Excited State  32:      Singlet-A      6.6335 eV  186.91 nm  f=0.0060  <S**2>=0.000
      99 ->109         0.23239
      99 ->110        -0.20569
     100 ->109        -0.10172
     101 ->110         0.11948
     102 ->109         0.38800
     102 ->110         0.26242
     103 ->109         0.11104
     103 ->116        -0.19016
     103 ->117        -0.15083
     103 ->118         0.12261

 Excited State  33:      Singlet-A      6.6871 eV  185.41 nm  f=0.0109  <S**2>=0.000
      87 ->104        -0.10729
      89 ->104         0.11623
      99 ->109        -0.11672
      99 ->110        -0.18648
     101 ->110         0.10015
     102 ->109        -0.10829
     102 ->110         0.34569
     103 ->116         0.10774
     103 ->117         0.33500
     103 ->119         0.20169

 Excited State  34:      Singlet-A      6.7551 eV  183.54 nm  f=0.0010  <S**2>=0.000
      83 ->104         0.15955
      86 ->104        -0.13104
      87 ->104        -0.21017
      89 ->104         0.25451
      90 ->104         0.21298
      91 ->104         0.20303
      94 ->104        -0.21460
      95 ->104         0.17654
      99 ->110         0.11897
     102 ->110        -0.21525

 Excited State  35:      Singlet-A      6.8245 eV  181.68 nm  f=0.0704  <S**2>=0.000
      96 ->104        -0.10222
      99 ->105        -0.24391
      99 ->107        -0.11919
      99 ->111         0.16577
     100 ->106        -0.10461
     100 ->107         0.12071
     102 ->108         0.48140
     103 ->111         0.11469

 Excited State  36:      Singlet-A      6.9377 eV  178.71 nm  f=0.0686  <S**2>=0.000
      87 ->104         0.15708
      95 ->104         0.49628
      98 ->105         0.12820
      99 ->108        -0.12981
     101 ->111         0.10699
     102 ->111        -0.19065

 Excited State  37:      Singlet-A      6.9625 eV  178.07 nm  f=0.0036  <S**2>=0.000
      82 ->104        -0.13178
      85 ->104        -0.12866
      87 ->104         0.18313
      88 ->104         0.12772
      89 ->104         0.14257
      93 ->104         0.46539
      93 ->105         0.15677
      95 ->104        -0.13551
     103 ->118         0.15063
     103 ->121        -0.10203
     103 ->123        -0.10461

 Excited State  38:      Singlet-A      6.9895 eV  177.39 nm  f=0.0106  <S**2>=0.000
      87 ->104         0.11282
      95 ->104         0.29691
      97 ->104        -0.11637
      99 ->108         0.14133
     101 ->105        -0.24269
     101 ->108         0.12166
     101 ->111        -0.27323
     102 ->111         0.27982
     103 ->118        -0.11059

 Excited State  39:      Singlet-A      7.0076 eV  176.93 nm  f=0.0075  <S**2>=0.000
      93 ->104        -0.19843
      95 ->104         0.10150
     100 ->105         0.13249
     100 ->108         0.10809
     100 ->111         0.12100
     102 ->118        -0.10903
     103 ->113         0.13578
     103 ->116         0.12596
     103 ->118         0.40221
     103 ->119         0.15171
     103 ->121        -0.19004
     103 ->123        -0.16822

 Excited State  40:      Singlet-A      7.0670 eV  175.44 nm  f=0.0462  <S**2>=0.000
     100 ->105         0.27659
     100 ->108         0.22276
     100 ->111         0.23012
     101 ->105         0.25260
     101 ->111         0.25044
     102 ->108        -0.11557
     102 ->111         0.12469
     103 ->118        -0.15951

 Excited State  41:      Singlet-A      7.1025 eV  174.56 nm  f=0.2048  <S**2>=0.000
      99 ->108         0.20588
     100 ->105        -0.25863
     100 ->108        -0.15947
     100 ->111        -0.20975
     101 ->105         0.18858
     101 ->111         0.17112
     102 ->111         0.35897
     103 ->119         0.12666

 Excited State  42:      Singlet-A      7.1127 eV  174.31 nm  f=0.0231  <S**2>=0.000
      78 ->104        -0.11603
      87 ->104        -0.15178
      90 ->104         0.20813
      93 ->104         0.21722
      93 ->105         0.10230
      94 ->104         0.30048
      94 ->105        -0.11151
     103 ->119         0.19235
     103 ->120        -0.14965
     103 ->125         0.12695

 Excited State  43:      Singlet-A      7.1257 eV  174.00 nm  f=0.0077  <S**2>=0.000
      87 ->104         0.12782
      90 ->104        -0.15624
      93 ->104        -0.10893
      94 ->104        -0.21052
     103 ->113         0.13821
     103 ->119         0.31096
     103 ->120        -0.21949
     103 ->125         0.18726

 Excited State  44:      Singlet-A      7.1708 eV  172.90 nm  f=0.0019  <S**2>=0.000
      80 ->104         0.13986
      81 ->104        -0.17000
      82 ->104        -0.11846
      83 ->104         0.11255
      85 ->104        -0.20535
      86 ->104        -0.11038
      88 ->104         0.12373
      89 ->104         0.20259
      90 ->104         0.19248
      90 ->105        -0.10241
      92 ->104         0.19020
      93 ->104        -0.26332
      94 ->104         0.27747
      94 ->105        -0.10919

 Excited State  45:      Singlet-A      7.2880 eV  170.12 nm  f=0.0058  <S**2>=0.000
     102 ->116         0.13427
     103 ->118        -0.11648
     103 ->119         0.19358
     103 ->121        -0.14576
     103 ->122         0.50460
     103 ->124        -0.10475
     103 ->126        -0.21554

 Excited State  46:      Singlet-A      7.3574 eV  168.52 nm  f=0.0018  <S**2>=0.000
      81 ->104        -0.10731
      86 ->104         0.16656
      87 ->104         0.13266
      89 ->104        -0.17414
      90 ->105         0.10118
      91 ->104         0.50666
     103 ->118        -0.10517
     103 ->120         0.13731
     103 ->121        -0.10021

 Excited State  47:      Singlet-A      7.3748 eV  168.12 nm  f=0.0002  <S**2>=0.000
      91 ->104        -0.20572
     103 ->112         0.12051
     103 ->117        -0.15002
     103 ->118        -0.24536
     103 ->119         0.18758
     103 ->120         0.31466
     103 ->121        -0.20538
     103 ->122        -0.21610

 Excited State  48:      Singlet-A      7.4402 eV  166.64 nm  f=0.0029  <S**2>=0.000
      87 ->104        -0.10820
      90 ->104        -0.21879
      92 ->104         0.36871
      99 ->105         0.39189
      99 ->111         0.14312
     102 ->108         0.17966

 Excited State  49:      Singlet-A      7.4480 eV  166.47 nm  f=0.0027  <S**2>=0.000
      87 ->104         0.12627
      90 ->104         0.23675
      92 ->104        -0.34988
      99 ->105         0.36863
      99 ->111         0.13617
     102 ->108         0.16778

 Excited State  50:      Singlet-A      7.5052 eV  165.20 nm  f=0.0036  <S**2>=0.000
      99 ->105         0.13051
     102 ->109        -0.10677
     103 ->116         0.12945
     103 ->118         0.11426
     103 ->120         0.17756
     103 ->121         0.20612
     103 ->123         0.35411
     103 ->124        -0.12201
     103 ->125        -0.24467
     103 ->127         0.11672

 Excited State  51:      Singlet-A      7.5649 eV  163.89 nm  f=0.0558  <S**2>=0.000
      96 ->109         0.11859
      98 ->106        -0.17530
      98 ->107         0.20872
      99 ->106        -0.28977
      99 ->107         0.33367
     102 ->106         0.20682
     102 ->107        -0.24168

 Excited State  52:      Singlet-A      7.6046 eV  163.04 nm  f=0.0109  <S**2>=0.000
      86 ->104        -0.14628
      88 ->104        -0.18796
      89 ->104        -0.16160
      89 ->105        -0.10462
      93 ->106         0.14985
      93 ->107        -0.15427
      96 ->109         0.30672
      98 ->107        -0.10231
      98 ->109        -0.13675
      99 ->106         0.16978
      99 ->109        -0.11170
     100 ->109        -0.15366
     102 ->107         0.12423

 Excited State  53:      Singlet-A      7.6068 eV  162.99 nm  f=0.0501  <S**2>=0.000
      98 ->106        -0.23926
      98 ->107        -0.17798
      99 ->106         0.31395
      99 ->107         0.29871
     102 ->106         0.25306
     102 ->107         0.17631

 Excited State  54:      Singlet-A      7.6116 eV  162.89 nm  f=0.0014  <S**2>=0.000
      86 ->104         0.18777
      88 ->104         0.25086
      89 ->104         0.15332
      89 ->105         0.12775
      94 ->106        -0.10520
      96 ->109         0.20435
      97 ->110        -0.17119
      98 ->109        -0.12562
      99 ->109        -0.10165
     100 ->109        -0.11036
     103 ->121        -0.11175

 Excited State  55:      Singlet-A      7.6281 eV  162.54 nm  f=0.0017  <S**2>=0.000
      86 ->104         0.10782
      89 ->104         0.11398
      94 ->106         0.11102
      96 ->109         0.19037
      97 ->110         0.30028
      98 ->110         0.18573
      99 ->110        -0.12435
     101 ->110        -0.16390
     103 ->121         0.19195
     103 ->123        -0.11648

 Excited State  56:      Singlet-A      7.7049 eV  160.92 nm  f=0.0079  <S**2>=0.000
      81 ->104         0.15661
      87 ->104         0.19648
      88 ->104        -0.19088
      88 ->105         0.12879
      89 ->104         0.16599
      94 ->106         0.22139
      94 ->107         0.18773
     103 ->120        -0.11346
     103 ->121        -0.18107
     103 ->123         0.16840
     103 ->125        -0.11006

 Excited State  57:      Singlet-A      7.7327 eV  160.34 nm  f=0.0019  <S**2>=0.000
      77 ->104        -0.18290
      80 ->104        -0.10015
      81 ->104         0.25433
      83 ->104        -0.17286
      85 ->104         0.12688
      86 ->104        -0.20810
      87 ->104         0.11458
      88 ->104         0.12657
      91 ->104         0.14943
      92 ->104         0.13043
      94 ->106        -0.11590
     103 ->121         0.14050
     103 ->123        -0.11382

 Excited State  58:      Singlet-A      7.7631 eV  159.71 nm  f=0.0025  <S**2>=0.000
      85 ->104        -0.10067
      89 ->104        -0.12182
      93 ->107         0.11552
      94 ->106        -0.12725
      97 ->110         0.12204
     103 ->120        -0.20131
     103 ->121        -0.10649
     103 ->124         0.11179
     103 ->125        -0.19426
     103 ->126         0.35192

 Excited State  59:      Singlet-A      7.7725 eV  159.52 nm  f=0.0052  <S**2>=0.000
      86 ->104         0.14091
      88 ->104        -0.19402
      93 ->106        -0.10946
      93 ->107         0.13301
      96 ->106         0.17081
      96 ->107        -0.15528
      96 ->109        -0.11381
      97 ->107        -0.12112
      97 ->110        -0.15415
     102 ->108         0.12842
     103 ->121         0.20400

 The electronic state is 1-A.
 Alpha  occ. eigenvalues --  -89.95651 -89.95455 -14.83825 -14.83375 -10.65983
 Alpha  occ. eigenvalues --  -10.65540 -10.61262 -10.61124 -10.59838 -10.59740
 Alpha  occ. eigenvalues --  -10.59028 -10.58804 -10.57700 -10.57645 -10.56451
 Alpha  occ. eigenvalues --  -10.56371 -10.56218 -10.56085 -10.55647 -10.55621
 Alpha  occ. eigenvalues --  -10.55542 -10.55411 -10.55289 -10.55201 -10.54419
 Alpha  occ. eigenvalues --  -10.53387 -10.53214  -8.31440  -8.31242  -6.23368
 Alpha  occ. eigenvalues --   -6.23178  -6.23172  -6.22982  -6.22952  -6.22749
 Alpha  occ. eigenvalues --   -1.13037  -1.12850  -0.98192  -0.98077  -0.95257
 Alpha  occ. eigenvalues --   -0.94529  -0.92772  -0.90268  -0.87737  -0.87078
 Alpha  occ. eigenvalues --   -0.86585  -0.84758  -0.84158  -0.83130  -0.79586
 Alpha  occ. eigenvalues --   -0.75140  -0.74629  -0.74442  -0.71743  -0.70794
 Alpha  occ. eigenvalues --   -0.69554  -0.68644  -0.66059  -0.65087  -0.64098
 Alpha  occ. eigenvalues --   -0.60351  -0.60215  -0.59688  -0.58542  -0.56792
 Alpha  occ. eigenvalues --   -0.56127  -0.55074  -0.55018  -0.53734  -0.53484
 Alpha  occ. eigenvalues --   -0.52906  -0.52700  -0.51919  -0.50694  -0.50356
 Alpha  occ. eigenvalues --   -0.50195  -0.48453  -0.47406  -0.47261  -0.46995
 Alpha  occ. eigenvalues --   -0.46401  -0.45889  -0.45364  -0.44844  -0.44143
 Alpha  occ. eigenvalues --   -0.43692  -0.43346  -0.43321  -0.42981  -0.42250
 Alpha  occ. eigenvalues --   -0.41917  -0.41726  -0.41201  -0.40955  -0.40781
 Alpha  occ. eigenvalues --   -0.38034  -0.37954  -0.36430  -0.32891  -0.30693
 Alpha  occ. eigenvalues --   -0.30581  -0.29309  -0.22763
 Alpha virt. eigenvalues --   -0.08210  -0.00508   0.00230   0.00288   0.01772
 Alpha virt. eigenvalues --    0.02197   0.02688   0.02985   0.06814   0.07350
 Alpha virt. eigenvalues --    0.07743   0.08389   0.08674   0.08905   0.09342

 Mulliken charges:
               1
     1  C   -0.266310
     2  C   -0.102659
     3  C   -0.302467
     4  C   -0.069838
     5  C    0.167865
     6  S    0.067104
     7  C   -0.006661
     8  C    0.157012
     9  N   -0.034019
    10  C   -0.204905
    11  C   -0.183416
    12  C   -0.172725
    13  C   -0.245698
    14  C   -0.286840
    15  C   -0.419888
    16  C   -0.282482
    17  C    0.163385
    18  S    0.097092
    19  C   -0.013494
    20  C    0.166540
    21  N   -0.030522
    22  C   -0.201868
    23  C   -0.178699
    24  C   -0.174294
    25  C   -0.248656
    26  C   -0.328834
    27  C   -0.424998
    28  H    0.210842
    29  H    0.179139
    30  H    0.171664
    31  H    0.184305
    32  H    0.195235
    33  H    0.189987
    34  H    0.190684
    35  H    0.213712
    36  H    0.196181
    37  H    0.195393
    38  H    0.169397
    39  H    0.172292
    40  H    0.167211
    41  H    0.193121
    42  H    0.196123
    43  H    0.190404
    44  H    0.191378
    45  H    0.217987
    46  H    0.207508
    47  H    0.203971
    48  H    0.174593
    49  H    0.170712
    50  H    0.178435
 Sum of Mulliken charges =   1.00000

 Dipole moment (field-independent basis, Debye):
    X=             -0.8675    Y=             -0.2050    Z=             -1.0070  Tot=              1.3449
 Quadrupole moment (field-independent basis, Debye-Ang):
   XX=            -10.7389   YY=           -135.0809   ZZ=           -180.9822
   XY=            -21.1462   XZ=              1.2322   YZ=             -0.8604

 Normal termination of Gaussian 16 at Mon Nov  6 00:05:34 2023.
