 Gaussian 16, Revision C.02,
 Gaussian 16:  ES64L-G16RevC.02  7-Dec-2021

 ------------------------------------------------------------
 # td=(nstates=150) M062X/def2TZVP scrf(smd, solvent=ethanol)
 ------------------------------------------------------------

 ---
 A-2
 ---
 Symbolic Z-matrix:
 Charge =  1 Multiplicity = 1

                         Standard orientation:
 ---------------------------------------------------------------------
 Center     Atomic      Atomic             Coordinates (Angstroms)
 Number     Number       Type             X           Y           Z
 ---------------------------------------------------------------------
      1          6           0        1.185932    1.124188    0.259065
      2          6           0       -0.064042    0.518894    0.184736
      3          6           0       -1.255062    1.232433    0.206071
      4          6           0       -2.576908    0.775971    0.134368
      5          6           0        2.392634    0.431471    0.171283
      6         16           0       -3.827667    1.970009   -0.187075
      7          6           0       -5.077877    0.744792   -0.134775
      8          6           0       -4.509195   -0.508640    0.113846
      9          7           0       -3.118372   -0.458179    0.279721
     10         16           0        2.505198   -1.300121   -0.125106
     11          6           0        4.260315   -1.225762   -0.102553
     12          6           0        4.688784    0.087010    0.119416
     13          7           0        3.627512    0.981655    0.287411
     14          6           0        5.159317   -2.267461   -0.279503
     15          6           0        6.517913   -1.973596   -0.237257
     16          6           0        6.953940   -0.663841   -0.025333
     17          6           0        6.051566    0.378213    0.153458
     18          6           0       -6.446804    0.904176   -0.304215
     19          6           0       -7.251229   -0.226106   -0.226408
     20          6           0       -6.689747   -1.482485    0.014868
     21          6           0       -5.320051   -1.640504    0.186250
     22          6           0        3.847144    2.415669    0.554580
     23          6           0        3.911762    3.249637   -0.717632
     24          6           0       -2.369369   -1.660308    0.692423
     25          6           0       -1.918854   -2.522991   -0.479110
     26          1           0        1.228852    2.199196    0.376562
     27          1           0       -0.096636   -0.556945    0.072235
     28          1           0       -1.165193    2.314370    0.224199
     29          1           0        4.813961   -3.279951   -0.448352
     30          1           0        7.240415   -2.768718   -0.373960
     31          1           0        8.015538   -0.449707   -0.002068
     32          1           0        6.406822    1.388085    0.306065
     33          1           0       -6.875736    1.880738   -0.491225
     34          1           0       -8.321880   -0.129159   -0.357431
     35          1           0       -7.330326   -2.354283    0.067360
     36          1           0       -4.901973   -2.621689    0.363736
     37          1           0        3.048585    2.754296    1.212168
     38          1           0        4.772710    2.494849    1.122044
     39          1           0        4.082538    4.295496   -0.452515
     40          1           0        4.728911    2.924468   -1.364544
     41          1           0        2.978199    3.187215   -1.279982
     42          1           0       -1.531667   -1.329317    1.302601
     43          1           0       -3.027666   -2.224702    1.351768
     44          1           0       -1.276100   -1.972556   -1.168349
     45          1           0       -1.359149   -3.379171   -0.096017
     46          1           0       -2.775672   -2.899604   -1.040801
 ---------------------------------------------------------------------

 SCF Done:  E(RM062X) =  -1718.58494415     A.U. after   13 cycles

 Excitation energies and oscillator strengths:

 Excited State   1:      Singlet-A      2.6301 eV  471.40 nm  f=1.6873  <S**2>=0.000
      96 -> 97         0.69864
 This state for optimization and/or second-order correction.
 Total Energy, E(TD-HF/TD-DFT) =  -1718.48828831
 Copying the excited state density for this state as the 1-particle RhoCI density.

 Excited State   2:      Singlet-A      4.5024 eV  275.37 nm  f=0.0554  <S**2>=0.000
      94 -> 97         0.12009
      94 ->100        -0.12159
      95 -> 97         0.60733
      96 -> 98        -0.22823

 Excited State   3:      Singlet-A      4.5907 eV  270.08 nm  f=0.0117  <S**2>=0.000
      93 -> 97        -0.24000
      93 ->100        -0.14345
      94 -> 97         0.51405
      95 -> 97        -0.11661
      95 -> 98         0.10783
      96 -> 99         0.31600

 Excited State   4:      Singlet-A      4.6135 eV  268.74 nm  f=0.0024  <S**2>=0.000
      94 ->101        -0.11828
      95 ->103        -0.18413
      96 ->100        -0.12480
      96 ->101         0.61740

 Excited State   5:      Singlet-A      4.6681 eV  265.60 nm  f=0.0425  <S**2>=0.000
      93 -> 97         0.53047
      94 -> 97         0.17913
      95 -> 97        -0.14431
      96 -> 98        -0.17524
      96 ->100        -0.26772
      96 ->101        -0.13139

 Excited State   6:      Singlet-A      4.7682 eV  260.02 nm  f=0.0005  <S**2>=0.000
      94 ->103        -0.10795
      95 ->101        -0.21640
      96 ->103         0.61357

 Excited State   7:      Singlet-A      4.8535 eV  255.45 nm  f=0.1246  <S**2>=0.000
      93 -> 97         0.14773
      94 -> 97         0.26776
      95 -> 97         0.18710
      95 ->102         0.10475
      96 -> 98         0.46304
      96 -> 99        -0.28553

 Excited State   8:      Singlet-A      4.9157 eV  252.22 nm  f=0.1103  <S**2>=0.000
      93 -> 97         0.17112
      93 -> 98        -0.10841
      93 -> 99        -0.10458
      94 -> 97        -0.25711
      95 -> 97         0.11886
      96 -> 98         0.32215
      96 -> 99         0.45203

 Excited State   9:      Singlet-A      4.9991 eV  248.01 nm  f=0.0158  <S**2>=0.000
      93 -> 97         0.27275
      94 -> 97         0.10743
      96 ->100         0.60282

 Excited State  10:      Singlet-A      5.2652 eV  235.48 nm  f=0.0965  <S**2>=0.000
      92 -> 97        -0.21449
      93 -> 98        -0.12520
      94 -> 99         0.12802
      95 ->100        -0.18090
      96 -> 99        -0.17279
      96 ->102         0.55831

 Excited State  11:      Singlet-A      5.5450 eV  223.60 nm  f=0.0450  <S**2>=0.000
      92 -> 97         0.58771
      96 ->102         0.29971

 Excited State  12:      Singlet-A      5.6708 eV  218.64 nm  f=0.0609  <S**2>=0.000
      93 -> 99         0.15020
      94 -> 98        -0.14172
      94 ->100        -0.10055
      95 ->102        -0.15913
      96 -> 98         0.13350
      96 ->104         0.58268

 Excited State  13:      Singlet-A      5.9694 eV  207.70 nm  f=0.0407  <S**2>=0.000
      90 ->101        -0.16235
      93 ->101        -0.31564
      93 ->103         0.23855
      94 ->101         0.33800
      95 ->103         0.21947
      96 ->101         0.20322

 Excited State  14:      Singlet-A      5.9820 eV  207.26 nm  f=0.1813  <S**2>=0.000
      92 -> 97        -0.13419
      92 -> 98        -0.10812
      93 -> 98         0.18666
      93 -> 99         0.31858
      93 ->100         0.19215
      93 ->102        -0.11990
      94 -> 98        -0.13097
      94 ->100        -0.19268
      94 ->101        -0.11958
      94 ->103        -0.10263
      95 ->103        -0.13354
      96 -> 98         0.16319
      96 ->102         0.10414
      96 ->104        -0.25040

 Excited State  15:      Singlet-A      6.0050 eV  206.47 nm  f=0.2369  <S**2>=0.000
      92 -> 97         0.15831
      93 -> 98        -0.15616
      94 -> 98        -0.23632
      94 -> 99         0.25135
      94 ->100        -0.13323
      94 ->101         0.10532
      94 ->102        -0.15497
      94 ->103         0.17301
      95 ->100        -0.13356
      95 ->102        -0.11815
      95 ->103         0.15249
      96 -> 98         0.11285
      96 -> 99        -0.10176
      96 ->102        -0.14611
      96 ->103         0.10054
      96 ->104        -0.19370

 Excited State  16:      Singlet-A      6.0276 eV  205.69 nm  f=0.1283  <S**2>=0.000
      91 ->101         0.10198
      91 ->103         0.10011
      92 -> 97        -0.12692
      93 -> 98         0.13893
      93 ->101         0.26915
      94 -> 99        -0.16442
      94 ->103         0.35157
      95 ->101         0.23588
      95 ->103         0.18098
      96 ->103         0.22290

 Excited State  17:      Singlet-A      6.2109 eV  199.62 nm  f=0.0409  <S**2>=0.000
      91 -> 97        -0.15256
      92 -> 98        -0.10804
      92 -> 99         0.11176
      94 -> 98         0.23500
      94 -> 99        -0.15752
      94 ->100        -0.13833
      94 ->102        -0.22850
      95 -> 98         0.35435
      95 -> 99        -0.26076
      95 ->102        -0.14336
      96 ->105        -0.10748

 Excited State  18:      Singlet-A      6.2304 eV  199.00 nm  f=0.0217  <S**2>=0.000
      93 -> 98        -0.18793
      93 -> 99        -0.17227
      93 ->100         0.14769
      93 ->102        -0.18941
      94 -> 98         0.20531
      94 -> 99         0.17779
      95 -> 98        -0.11340
      95 -> 99        -0.20946
      96 ->105         0.37614
      96 ->108        -0.11079

 Excited State  19:      Singlet-A      6.2576 eV  198.13 nm  f=0.0184  <S**2>=0.000
      93 -> 98         0.10699
      93 -> 99         0.10858
      93 ->100        -0.17848
      93 ->102         0.13175
      94 -> 98        -0.11519
      94 -> 99        -0.13184
      94 ->102        -0.13050
      95 -> 98         0.16961
      96 ->105         0.45778
      96 ->107         0.17289
      96 ->108        -0.13884

 Excited State  20:      Singlet-A      6.3787 eV  194.37 nm  f=0.0007  <S**2>=0.000
      90 -> 97         0.22268
      91 -> 97         0.25009
      96 ->105         0.10908
      96 ->106         0.41357
      96 ->107        -0.38013

 Excited State  21:      Singlet-A      6.4551 eV  192.07 nm  f=0.0311  <S**2>=0.000
      90 -> 97         0.58818
      91 -> 97        -0.22526

 Excited State  22:      Singlet-A      6.4741 eV  191.51 nm  f=0.0117  <S**2>=0.000
      90 -> 97         0.14371
      91 -> 97         0.53650
      96 ->106        -0.20779
      96 ->107         0.21119

 Excited State  23:      Singlet-A      6.5837 eV  188.32 nm  f=0.0046  <S**2>=0.000
      79 -> 97        -0.14381
      84 -> 97         0.29492
      85 -> 97        -0.23116
      86 -> 97        -0.18205
      88 -> 97         0.40729
      89 -> 97         0.14582
      96 ->107         0.11419

 Excited State  24:      Singlet-A      6.6494 eV  186.46 nm  f=0.0077  <S**2>=0.000
      96 ->105        -0.10988
      96 ->106         0.41225
      96 ->107         0.41319
      96 ->110        -0.12562
      96 ->111        -0.19003

 Excited State  25:      Singlet-A      6.6827 eV  185.53 nm  f=0.0022  <S**2>=0.000
      92 ->101        -0.17005
      93 ->103        -0.17067
      94 ->103        -0.12995
      95 ->103         0.15673
      96 ->105        -0.15276
      96 ->108        -0.31676
      96 ->109         0.22884
      96 ->110         0.33964
      96 ->111         0.16247

 Excited State  26:      Singlet-A      6.7092 eV  184.80 nm  f=0.0062  <S**2>=0.000
      89 -> 97         0.61375

 Excited State  27:      Singlet-A      6.7342 eV  184.11 nm  f=0.4489  <S**2>=0.000
      89 -> 97        -0.12349
      92 -> 99         0.17645
      92 ->103         0.14234
      93 -> 98        -0.19160
      93 ->100         0.20130
      93 ->101         0.18866
      93 ->102        -0.14344
      94 -> 98        -0.11028
      94 ->100        -0.11390
      94 ->102         0.12123
      95 -> 98         0.23939
      95 -> 99         0.17572
      95 ->100         0.15376
      95 ->101        -0.19187
      96 ->109         0.10798

 Excited State  28:      Singlet-A      6.7647 eV  183.28 nm  f=0.1894  <S**2>=0.000
      92 -> 98         0.22232
      93 -> 98         0.10286
      93 -> 99        -0.17650
      93 ->102        -0.16704
      94 -> 98         0.13048
      94 -> 99        -0.13789
      94 ->100        -0.23005
      94 ->102        -0.17415
      95 -> 98        -0.10642
      95 -> 99         0.35057
      95 ->100        -0.15446
      95 ->101         0.10939
      95 ->102        -0.13349

 Excited State  29:      Singlet-A      6.7656 eV  183.26 nm  f=0.3514  <S**2>=0.000
      92 -> 99         0.14569
      92 ->101         0.15749
      92 ->103        -0.17942
      93 -> 98        -0.14639
      93 ->100         0.17329
      93 ->101        -0.24441
      94 -> 98        -0.11827
      94 ->101        -0.12037
      94 ->102         0.13804
      95 -> 98         0.20186
      95 ->101         0.30355
      96 ->108        -0.11966
      96 ->109        -0.10803

 Excited State  30:      Singlet-A      6.8475 eV  181.07 nm  f=0.0205  <S**2>=0.000
      92 ->101        -0.12863
      92 ->103        -0.14917
      93 ->103        -0.17926
      94 ->101        -0.10922
      94 ->103        -0.14857
      95 ->101         0.13938
      95 ->103         0.21829
      96 ->107        -0.11351
      96 ->108         0.17444
      96 ->109         0.32984
      96 ->110        -0.28609

 Excited State  31:      Singlet-A      6.8843 eV  180.10 nm  f=0.1651  <S**2>=0.000
      92 ->102        -0.16037
      93 ->100        -0.27410
      94 ->100        -0.19260
      95 ->100         0.40392
      95 ->103         0.13062
      96 ->109        -0.19291

 Excited State  32:      Singlet-A      6.9187 eV  179.20 nm  f=0.0382  <S**2>=0.000
      92 ->101         0.19872
      92 ->102        -0.11037
      93 ->100        -0.15717
      93 ->103         0.16275
      94 ->100        -0.10968
      94 ->103         0.11639
      95 ->100         0.19529
      95 ->103        -0.23307
      96 ->109         0.39898
      96 ->111         0.16463

 Excited State  33:      Singlet-A      7.0686 eV  175.40 nm  f=0.0021  <S**2>=0.000
      80 -> 97         0.15115
      83 -> 97         0.18006
      87 -> 97         0.56489
      87 ->100         0.15172

 Excited State  34:      Singlet-A      7.1268 eV  173.97 nm  f=0.0462  <S**2>=0.000
      92 ->100        -0.28149
      92 ->104        -0.12424
      93 -> 99         0.10767
      93 ->102        -0.21946
      94 ->102        -0.19445
      95 ->102         0.43033
      96 ->100         0.10075

 Excited State  35:      Singlet-A      7.1942 eV  172.34 nm  f=0.0069  <S**2>=0.000
      88 -> 97         0.13494
      96 ->108         0.29015
      96 ->110         0.33704
      96 ->112         0.15037
      96 ->113         0.23671
      96 ->115         0.15971
      96 ->116         0.14382

 Excited State  36:      Singlet-A      7.2037 eV  172.11 nm  f=0.0010  <S**2>=0.000
      76 -> 97         0.10072
      80 -> 97        -0.16967
      82 -> 97        -0.12249
      85 -> 97         0.25288
      86 -> 97         0.24501
      87 -> 97         0.19259
      88 -> 97         0.38616
      88 ->100        -0.14933
      96 ->108        -0.12123

 Excited State  37:      Singlet-A      7.2917 eV  170.03 nm  f=0.0009  <S**2>=0.000
      72 -> 97         0.18185
      80 -> 97        -0.23151
      81 -> 97         0.21558
      83 -> 97        -0.18315
      84 -> 97         0.38030
      86 -> 97         0.10581
      87 -> 97         0.16231
      87 ->100         0.10001
      88 -> 97        -0.22658

 Excited State  38:      Singlet-A      7.3828 eV  167.94 nm  f=0.0140  <S**2>=0.000
      94 ->100         0.11169
      94 ->104        -0.15559
      95 ->100         0.12825
      95 ->104        -0.12979
      96 ->105        -0.13463
      96 ->108        -0.25210
      96 ->110        -0.13175
      96 ->111        -0.28574
      96 ->112         0.30057
      96 ->113         0.16528

 Excited State  39:      Singlet-A      7.3953 eV  167.65 nm  f=0.0009  <S**2>=0.000
      92 ->102        -0.10651
      93 ->100        -0.15671
      93 ->104         0.13789
      94 ->100        -0.11301
      94 ->102         0.19298
      94 ->107        -0.10558
      95 -> 98         0.12376
      95 ->100        -0.19262
      95 ->104         0.40557
      96 ->108        -0.18373
      96 ->110        -0.10931
      96 ->112         0.11207

 Excited State  40:      Singlet-A      7.4428 eV  166.58 nm  f=0.0253  <S**2>=0.000
      93 ->100         0.14305
      93 ->102         0.30074
      93 ->104        -0.21352
      93 ->107        -0.10203
      94 -> 98         0.12945
      94 ->100        -0.28184
      94 ->104         0.37047

 Excited State  41:      Singlet-A      7.4886 eV  165.56 nm  f=0.0144  <S**2>=0.000
      73 -> 97         0.20996
      76 -> 97         0.18352
      79 -> 97         0.13875
      80 -> 97         0.17427
      83 -> 97         0.35542
      84 -> 97         0.26453
      86 -> 97         0.22561
      87 -> 97        -0.13984

 Excited State  42:      Singlet-A      7.5511 eV  164.19 nm  f=0.0280  <S**2>=0.000
      80 -> 97         0.11206
      84 -> 97         0.17952
      85 -> 97         0.50317
      86 -> 97        -0.26532
      93 ->104        -0.13390

 Excited State  43:      Singlet-A      7.5753 eV  163.67 nm  f=0.0603  <S**2>=0.000
      83 -> 97        -0.10181
      85 -> 97         0.13196
      92 ->102         0.18505
      93 ->100        -0.13536
      93 ->104         0.30578
      94 ->104         0.15803
      95 ->104        -0.23186
      96 ->110        -0.10527
      96 ->113         0.23263
      96 ->114         0.10548

 Excited State  44:      Singlet-A      7.5836 eV  163.49 nm  f=0.0231  <S**2>=0.000
      85 -> 97        -0.12515
      86 -> 97         0.12523
      91 ->103        -0.10181
      93 ->104        -0.13554
      95 ->104         0.13335
      96 ->106         0.13359
      96 ->109        -0.10688
      96 ->110        -0.15998
      96 ->111         0.33816
      96 ->112         0.14904
      96 ->113         0.25347
      96 ->114         0.12713

 Excited State  45:      Singlet-A      7.6534 eV  162.00 nm  f=0.0043  <S**2>=0.000
      88 -> 98        -0.12519
      88 -> 99         0.13118
      90 ->101        -0.11454
      91 ->101         0.14732
      91 ->103         0.27829
      94 -> 98         0.11491
      94 -> 99         0.11965
      94 ->101        -0.10824
      94 ->103        -0.11178
      95 -> 99         0.10475
      95 ->108        -0.14426
      96 ->109        -0.12120
      96 ->111         0.25518
      96 ->112         0.21584

 Excited State  46:      Singlet-A      7.6651 eV  161.75 nm  f=0.0034  <S**2>=0.000
      86 -> 97        -0.15596
      87 -> 98         0.14267
      87 -> 99         0.18608
      90 ->101         0.35809
      90 ->103        -0.24598
      91 ->101         0.20158
      93 ->101        -0.18031
      96 ->113        -0.15025

 Excited State  47:      Singlet-A      7.6739 eV  161.57 nm  f=0.0033  <S**2>=0.000
      93 -> 99         0.13113
      94 -> 98         0.28958
      94 -> 99         0.36056
      94 ->100         0.16956
      95 -> 98         0.22663
      95 -> 99         0.27451
      95 ->100         0.12009

 Excited State  48:      Singlet-A      7.6937 eV  161.15 nm  f=0.0011  <S**2>=0.000
      93 -> 98         0.41384
      93 -> 99        -0.37329
      94 -> 98        -0.26330
      94 -> 99         0.24572
      95 -> 98         0.14924
      95 -> 99        -0.12952

 Excited State  49:      Singlet-A      7.7065 eV  160.88 nm  f=0.0066  <S**2>=0.000
      73 -> 97        -0.10042
      76 -> 97        -0.12919
      78 -> 97         0.10764
      79 -> 97        -0.13039
      80 -> 97         0.22531
      81 -> 97        -0.16848
      82 -> 97         0.14366
      83 -> 97        -0.13722
      86 -> 97         0.38851
      90 ->101         0.13557
      90 ->103        -0.11695
      91 ->101         0.10548

 Excited State  50:      Singlet-A      7.7273 eV  160.45 nm  f=0.0082  <S**2>=0.000
      82 -> 97        -0.11168
      88 -> 98        -0.18649
      88 -> 99         0.15685
      90 ->101        -0.10668
      91 ->103         0.20748
      96 ->112        -0.20799
      96 ->113         0.26423
      96 ->114         0.12428
      96 ->116        -0.10837
      96 ->117         0.17315
      96 ->118        -0.14158

 Excited State  51:      Singlet-A      7.7724 eV  159.52 nm  f=0.0046  <S**2>=0.000
      81 -> 97         0.23558
      82 -> 97         0.17249
      87 -> 98         0.19452
      87 -> 99         0.16210
      88 -> 98         0.10438
      88 -> 99        -0.17106
      90 ->101        -0.16616
      91 ->103         0.15428
      96 ->114         0.11077
      96 ->115         0.16584
      96 ->118        -0.17521

 Excited State  52:      Singlet-A      7.7810 eV  159.34 nm  f=0.0063  <S**2>=0.000
      82 -> 97        -0.14427
      88 -> 99         0.10466
      96 ->113        -0.16666
      96 ->114         0.34809
      96 ->115         0.27400
      96 ->116         0.11092
      96 ->118        -0.24780

 Excited State  53:      Singlet-A      7.8063 eV  158.83 nm  f=0.0008  <S**2>=0.000
      73 -> 97         0.12636
      79 -> 97         0.13169
      85 -> 99        -0.11001
      87 -> 98        -0.11387
      87 -> 99        -0.24826
      88 -> 98         0.26260
      88 -> 99        -0.15690
      91 ->101         0.15240
      91 ->103         0.17934
      92 ->103         0.10098
      96 ->114         0.14396
      96 ->118        -0.11930

 Excited State  54:      Singlet-A      7.8637 eV  157.67 nm  f=0.0052  <S**2>=0.000
      88 -> 98         0.11584
      88 -> 99        -0.10779
      95 ->109        -0.10781
      96 ->108        -0.12435
      96 ->112        -0.25926
      96 ->113         0.15310
      96 ->114        -0.14136
      96 ->115         0.32538
      96 ->116         0.13390

 Excited State  55:      Singlet-A      7.8760 eV  157.42 nm  f=0.1329  <S**2>=0.000
      90 -> 98        -0.12586
      90 -> 99         0.10160
      91 -> 98         0.37791
      91 -> 99        -0.34096
      92 -> 98         0.21893
      92 -> 99        -0.19760

 Excited State  56:      Singlet-A      7.8810 eV  157.32 nm  f=0.0729  <S**2>=0.000
      81 -> 97         0.16681
      82 -> 97         0.10763
      87 -> 98        -0.14006
      87 -> 99        -0.13745
      88 -> 99         0.11311
      90 -> 98         0.20865
      90 -> 99         0.25822
      91 -> 98         0.12775
      92 -> 98        -0.17072
      92 -> 99        -0.24251

 Excited State  57:      Singlet-A      7.8964 eV  157.01 nm  f=0.0496  <S**2>=0.000
      81 -> 97        -0.19633
      82 -> 97        -0.17203
      84 -> 97         0.13602
      87 -> 98         0.19062
      87 -> 99         0.19067
      87 ->100         0.10910
      88 -> 99        -0.14783
      90 -> 98         0.23788
      90 -> 99         0.23174
      91 -> 99         0.15331
      92 -> 98        -0.10051

 Excited State  58:      Singlet-A      7.9269 eV  156.41 nm  f=0.0012  <S**2>=0.000
      76 -> 97         0.10017
      79 -> 97         0.10240
      80 -> 97         0.23271
      81 -> 97         0.28848
      83 -> 97        -0.22040
      88 -> 98        -0.10502
      89 -> 98         0.10964
      90 -> 99         0.13629
      92 -> 99         0.20820
      95 -> 98        -0.12041
      95 ->104         0.13067

 Excited State  59:      Singlet-A      7.9477 eV  156.00 nm  f=0.0089  <S**2>=0.000
      73 -> 97         0.13134
      76 -> 97         0.10831
      78 -> 97        -0.13686
      79 -> 97         0.17598
      81 -> 98         0.12513
      81 ->100        -0.11678
      82 -> 97         0.36668
      83 -> 97        -0.20809
      87 -> 99         0.12507
      88 -> 98        -0.11605

 The electronic state is 1-A.
 Alpha  occ. eigenvalues --  -89.95622 -89.95509 -14.83932 -14.83467 -10.66015
 Alpha  occ. eigenvalues --  -10.65604 -10.61134 -10.61016 -10.59728 -10.59663
 Alpha  occ. eigenvalues --  -10.59051 -10.58775 -10.58414 -10.56335 -10.56277
 Alpha  occ. eigenvalues --  -10.56093 -10.55979 -10.55671 -10.55524 -10.55441
 Alpha  occ. eigenvalues --  -10.55304 -10.55246 -10.55201 -10.53354 -10.53128
 Alpha  occ. eigenvalues --   -8.31432  -8.31315  -6.23359  -6.23251  -6.23162
 Alpha  occ. eigenvalues --   -6.23055  -6.22943  -6.22823  -1.13493  -1.13311
 Alpha  occ. eigenvalues --   -0.98492  -0.98383  -0.95644  -0.94449  -0.92141
 Alpha  occ. eigenvalues --   -0.88906  -0.87428  -0.87100  -0.85490  -0.84515
 Alpha  occ. eigenvalues --   -0.83677  -0.80100  -0.75052  -0.74809  -0.74561
 Alpha  occ. eigenvalues --   -0.71958  -0.70524  -0.69617  -0.68392  -0.65409
 Alpha  occ. eigenvalues --   -0.64961  -0.61013  -0.60447  -0.60354  -0.57905
 Alpha  occ. eigenvalues --   -0.57058  -0.55396  -0.55354  -0.54904  -0.53984
 Alpha  occ. eigenvalues --   -0.53484  -0.53116  -0.52439  -0.51961  -0.50891
 Alpha  occ. eigenvalues --   -0.50410  -0.48587  -0.47794  -0.47437  -0.47283
 Alpha  occ. eigenvalues --   -0.46470  -0.46015  -0.45244  -0.45069  -0.43932
 Alpha  occ. eigenvalues --   -0.43543  -0.43462  -0.43228  -0.42598  -0.42111
 Alpha  occ. eigenvalues --   -0.41873  -0.41230  -0.41030  -0.39189  -0.38162
 Alpha  occ. eigenvalues --   -0.38049  -0.34187  -0.30816  -0.30704  -0.30559
 Alpha  occ. eigenvalues --   -0.23849
 Alpha virt. eigenvalues --   -0.07242   0.00213   0.00280   0.00782   0.02026
 Alpha virt. eigenvalues --    0.02099   0.02760   0.04337   0.06767   0.07279
 Alpha virt. eigenvalues --    0.08169   0.08863   0.09131   0.09310   0.09876

 Mulliken charges:
               1
     1  C   -0.281186
     2  C   -0.108814
     3  C   -0.284933
     4  C    0.164409
     5  C    0.181760
     6  S    0.096394
     7  C   -0.008956
     8  C    0.170570
     9  N   -0.028989
    10  S    0.058830
    11  C   -0.000411
    12  C    0.158939
    13  N   -0.032530
    14  C   -0.210015
    15  C   -0.180224
    16  C   -0.174240
    17  C   -0.243738
    18  C   -0.204518
    19  C   -0.176123
    20  C   -0.176020
    21  C   -0.248087
    22  C   -0.283266
    23  C   -0.418902
    24  C   -0.328237
    25  C   -0.425613
    26  H    0.209333
    27  H    0.165154
    28  H    0.189309
    29  H    0.194260
    30  H    0.189430
    31  H    0.189986
    32  H    0.213015
    33  H    0.195274
    34  H    0.189740
    35  H    0.190561
    36  H    0.216799
    37  H    0.195885
    38  H    0.195049
    39  H    0.172123
    40  H    0.167290
    41  H    0.169130
    42  H    0.210566
    43  H    0.204652
    44  H    0.172260
    45  H    0.178809
    46  H    0.175275
 Sum of Mulliken charges =   1.00000

 Dipole moment (field-independent basis, Debye):
    X=              1.1078    Y=              0.2052    Z=              1.2339  Tot=              1.6708
 Quadrupole moment (field-independent basis, Debye-Ang):
   XX=            -50.4471   YY=           -124.2107   ZZ=           -166.8538
   XY=             15.4162   XZ=              1.6797   YZ=              0.8982

 Normal termination of Gaussian 16 at Sun Nov  5 01:23:05 2023.
