 Gaussian 16, Revision C.02,
 Gaussian 16:  ES64L-G16RevC.02  7-Dec-2021

 ------------------------------------------------------------
 # td=(nstates=150) M062X/def2TZVP scrf(smd, solvent=ethanol)
 ------------------------------------------------------------

 ---
 B-1
 ---
 Symbolic Z-matrix:
 Charge =  0 Multiplicity = 1

                         Standard orientation:
 ---------------------------------------------------------------------
 Center     Atomic      Atomic             Coordinates (Angstroms)
 Number     Number       Type             X           Y           Z
 ---------------------------------------------------------------------
      1          6           0       13.193247    1.965180    0.357514
      2          6           0       14.150234    1.366297   -0.666837
      3          6           0       14.197930   -0.145886   -0.469985
      4          6           0       12.839886   -0.781119   -0.265942
      5          6           0       11.699193   -0.069117   -0.020535
      6          6           0       11.734254    1.463294    0.197940
      7          6           0       10.434640   -0.808638    0.027915
      8          6           0        9.147698   -0.368486    0.051934
      9          6           0        7.970978   -1.218813    0.064023
     10          6           0        6.738479   -0.618773    0.069992
     11          6           0        5.445845   -1.238015    0.078209
     12          6           0        4.280328   -0.525977    0.081210
     13          6           0        2.942601   -1.063627    0.086009
     14          6           0        1.885522   -0.185039    0.086900
     15          6           0        0.488362   -0.479870    0.088382
     16          6           0       -0.488364    0.479879    0.088381
     17          6           0       -1.885523    0.185049    0.086901
     18          6           0       -2.942603    1.063636    0.086010
     19          6           0       -4.280330    0.525984    0.081210
     20          6           0       -5.445847    1.238022    0.078205
     21          6           0       -6.738480    0.618778    0.069986
     22          6           0       -7.970980    1.218816    0.064016
     23          6           0       -9.147699    0.368486    0.051926
     24          6           0      -10.434641    0.808636    0.027911
     25          6           0      -11.699193    0.069112   -0.020539
     26          6           0      -11.734248   -1.463299    0.197935
     27          6           0       11.014600    1.853868    1.513234
     28          6           0       11.087577    2.209256   -0.996377
     29          6           0       12.878927   -2.293643   -0.398885
     30          6           0      -13.193238   -1.965187    0.357525
     31          6           0      -14.150237   -1.366308   -0.666817
     32          6           0      -14.197934    0.145875   -0.469969
     33          6           0      -12.839889    0.781111   -0.265939
     34          6           0      -11.014576   -1.853870    1.513220
     35          6           0      -11.087582   -2.209257   -0.996389
     36          6           0      -12.878932    2.293635   -0.398883
     37          6           0       -8.156563    2.717180    0.068498
     38          6           0       -2.769507    2.564242    0.088788
     39          6           0        2.769504   -2.564233    0.088790
     40          6           0        8.156557   -2.717177    0.068503
     41          1           0       13.552240    1.704444    1.363722
     42          1           0       13.191791    3.061587    0.302962
     43          1           0       15.153148    1.798268   -0.563053
     44          1           0       13.813091    1.597755   -1.685187
     45          1           0       14.836732   -0.392637    0.395545
     46          1           0       14.685170   -0.631298   -1.328645
     47          1           0       10.553209   -1.886254   -0.000126
     48          1           0        8.931571    0.694424    0.048253
     49          1           0        6.727188    0.472294    0.066595
     50          1           0        5.394190   -2.323329    0.080545
     51          1           0        4.354073    0.562407    0.078511
     52          1           0        2.136434    0.876729    0.085263
     53          1           0        0.172471   -1.521700    0.088524
     54          1           0       -0.172472    1.521709    0.088521
     55          1           0       -2.136435   -0.876720    0.085267
     56          1           0       -4.354074   -0.562400    0.078514
     57          1           0       -5.394193    2.323335    0.080538
     58          1           0       -6.727188   -0.472289    0.066588
     59          1           0       -8.931568   -0.694423    0.048240
     60          1           0      -10.553213    1.886252   -0.000123
     61          1           0       11.416560    1.280584    2.356412
     62          1           0       11.183965    2.918133    1.720013
     63          1           0        9.936160    1.690871    1.488587
     64          1           0       10.062275    1.884980   -1.187807
     65          1           0       11.067226    3.288779   -0.800274
     66          1           0       11.653135    2.045583   -1.919919
     67          1           0       13.913764   -2.648960   -0.350635
     68          1           0       12.324510   -2.809583    0.392139
     69          1           0       12.468777   -2.633235   -1.360075
     70          1           0      -13.191780   -3.061594    0.302976
     71          1           0      -13.552222   -1.704450    1.363737
     72          1           0      -15.153149   -1.798281   -0.563022
     73          1           0      -13.813104   -1.597768   -1.685170
     74          1           0      -14.836727    0.392627    0.395567
     75          1           0      -14.685183    0.631285   -1.328625
     76          1           0      -11.183932   -2.918136    1.719999
     77          1           0       -9.936137   -1.690867    1.488558
     78          1           0      -11.416527   -1.280589    2.356403
     79          1           0      -10.062283   -1.884978   -1.187830
     80          1           0      -11.067226   -3.288781   -0.800288
     81          1           0      -11.653150   -2.045585   -1.919926
     82          1           0      -13.913771    2.648951   -0.350639
     83          1           0      -12.324521    2.809577    0.392144
     84          1           0      -12.468777    2.633229   -1.360071
     85          1           0       -8.744087    3.036457    0.938730
     86          1           0       -7.209146    3.257946    0.093047
     87          1           0       -8.704221    3.047232   -0.823677
     88          1           0       -3.248036    3.011075    0.969534
     89          1           0       -1.721470    2.868026    0.092705
     90          1           0       -3.242385    3.013831   -0.793611
     91          1           0        3.242396   -3.013825   -0.793600
     92          1           0        3.248019   -3.011063    0.969546
     93          1           0        1.721466   -2.868016    0.092692
     94          1           0        7.209140   -3.257941    0.093061
     95          1           0        8.704208   -3.047230   -0.823677
     96          1           0        8.744089   -3.036455    0.938730
 ---------------------------------------------------------------------

 SCF Done:  E(RM062X) =  -1557.73970981     A.U. after   12 cycles

 Excitation energies and oscillator strengths:

 Excited State   1:      Singlet-A      2.3001 eV  539.05 nm  f=4.4823  <S**2>=0.000
     147 -> 150       -0.15535
     148 -> 149        0.68486
 This state for optimization and/or second-order correction.
 Total Energy, E(TD-HF/TD-DFT) =  -1557.65518437
 Copying the excited state density for this state as the 1-particle RhoCI density.

 Excited State   2:      Singlet-A      3.2202 eV  385.02 nm  f=0.0020  <S**2>=0.000
     146 -> 150       -0.14137
     147 -> 149        0.64570
     148 -> 150       -0.23408

 Excited State   3:      Singlet-A      3.5545 eV  348.80 nm  f=0.0006  <S**2>=0.000
     147 -> 149        0.21315
     147 -> 151       -0.16514
     148 -> 150        0.63785

 Excited State   4:      Singlet-A      3.9526 eV  313.68 nm  f=0.2062  <S**2>=0.000
     145 -> 150       -0.12776
     146 -> 149        0.62897
     147 -> 150       -0.26368

 Excited State   5:      Singlet-A      4.2745 eV  290.05 nm  f=0.3643  <S**2>=0.000
     146 -> 149       -0.18071
     147 -> 150       -0.37204
     147 -> 152        0.12267
     148 -> 151        0.53353

 Excited State   6:      Singlet-A      4.6287 eV  267.86 nm  f=0.0026  <S**2>=0.000
     144 -> 150        0.14312
     145 -> 149        0.59739
     146 -> 150       -0.28998
     147 -> 151        0.12666

 Excited State   7:      Singlet-A      4.7066 eV  263.42 nm  f=0.0932  <S**2>=0.000
     146 -> 149        0.18454
     146 -> 151       -0.11940
     147 -> 150        0.48936
     148 -> 149        0.14994
     148 -> 151        0.41564

 Excited State   8:      Singlet-A      5.0086 eV  247.54 nm  f=0.0037  <S**2>=0.000
     145 -> 149       -0.19389
     146 -> 150       -0.31148
     147 -> 151        0.38843
     148 -> 152        0.40913

 Excited State   9:      Singlet-A      5.1172 eV  242.29 nm  f=0.0147  <S**2>=0.000
     143 -> 150        0.10824
     144 -> 149        0.59798
     145 -> 150        0.28756
     146 -> 151       -0.13871

 Excited State  10:      Singlet-A      5.3237 eV  232.89 nm  f=0.0001  <S**2>=0.000
     145 -> 149        0.21477
     145 -> 151       -0.13342
     146 -> 150        0.49528
     147 -> 149        0.16817
     147 -> 151        0.20517
     148 -> 152        0.29490

 Excited State  11:      Singlet-A      5.5807 eV  222.17 nm  f=0.0000  <S**2>=0.000
     143 -> 149       -0.11733
     145 -> 149       -0.10175
     146 -> 152        0.10004
     147 -> 151        0.47346
     148 -> 150        0.16457
     148 -> 152       -0.41687

 Excited State  12:      Singlet-A      5.6401 eV  219.83 nm  f=0.0784  <S**2>=0.000
     144 -> 149       -0.14116
     145 -> 150        0.21954
     146 -> 151       -0.31540
     147 -> 152       -0.34217
     148 -> 153        0.34317
     148 -> 155       -0.21335

 Excited State  13:      Singlet-A      5.6879 eV  217.98 nm  f=0.0005  <S**2>=0.000
     137 -> 149        0.10329
     142 -> 150        0.12407
     143 -> 149        0.55335
     144 -> 150        0.25980
     145 -> 151        0.14002
     148 -> 152       -0.13649

 Excited State  14:      Singlet-A      5.7886 eV  214.19 nm  f=0.0015  <S**2>=0.000
     134 -> 149        0.10652
     141 -> 150       -0.31441
     141 -> 152        0.10192
     142 -> 149        0.48811
     142 -> 151        0.22948
     143 -> 150        0.17973

 Excited State  15:      Singlet-A      5.8040 eV  213.62 nm  f=0.0001  <S**2>=0.000
     133 -> 149        0.10050
     141 -> 149        0.50289
     141 -> 151        0.18941
     142 -> 150       -0.34200
     142 -> 152        0.10913
     143 -> 151       -0.10451

 Excited State  16:      Singlet-A      5.9456 eV  208.53 nm  f=0.0017  <S**2>=0.000
     144 -> 149       -0.26743
     144 -> 151        0.14571
     145 -> 150        0.45129
     146 -> 149        0.15609
     146 -> 151       -0.11677
     147 -> 152        0.16935
     148 -> 153       -0.29370

 Excited State  17:      Singlet-A      5.9586 eV  208.07 nm  f=0.0021  <S**2>=0.000
     146 -> 155        0.13328
     147 -> 154       -0.33927
     147 -> 157       -0.10796
     148 -> 153        0.20653
     148 -> 155        0.46643
     148 -> 156       -0.18877

 Excited State  18:      Singlet-A      5.9598 eV  208.03 nm  f=0.0130  <S**2>=0.000
     146 -> 154        0.17007
     147 -> 153       -0.22433
     147 -> 155       -0.28076
     148 -> 154        0.51247
     148 -> 157        0.17583

 Excited State  19:      Singlet-A      6.1350 eV  202.09 nm  f=0.0097  <S**2>=0.000
     144 -> 150        0.20268
     145 -> 151        0.22552
     146 -> 152        0.24429
     147 -> 153       -0.23284
     147 -> 155        0.18516
     147 -> 163       -0.11287
     148 -> 157       -0.19515
     148 -> 158        0.36309
     148 -> 162       -0.10245

 Excited State  20:      Singlet-A      6.1610 eV  201.24 nm  f=0.0022  <S**2>=0.000
     131 -> 149       -0.10202
     134 -> 149       -0.12843
     147 -> 154       -0.10514
     147 -> 157        0.11804
     147 -> 162        0.10538
     148 -> 156        0.43108
     148 -> 159        0.31571
     148 -> 161       -0.23892
     148 -> 164       -0.12662

 Excited State  21:      Singlet-A      6.2394 eV  198.71 nm  f=0.0010  <S**2>=0.000
     130 -> 150        0.13520
     131 -> 149        0.34028
     134 -> 149        0.38933
     139 -> 150       -0.12051
     140 -> 149        0.23377
     148 -> 156        0.15006

 Excited State  22:      Singlet-A      6.2751 eV  197.58 nm  f=0.0036  <S**2>=0.000
     147 -> 156        0.23366
     147 -> 161       -0.10869
     148 -> 157        0.44011
     148 -> 158        0.22572
     148 -> 162        0.29395
     148 -> 167       -0.10243

 Excited State  23:      Singlet-A      6.2851 eV  197.27 nm  f=0.0867  <S**2>=0.000
     131 -> 149        0.10539
     134 -> 149        0.12840
     138 -> 149       -0.15592
     140 -> 149       -0.10586
     144 -> 151        0.13597
     145 -> 150        0.23021
     146 -> 151        0.42932
     147 -> 150        0.10781
     147 -> 152        0.14018
     148 -> 153        0.22691
     148 -> 155       -0.16156

 Excited State  24:      Singlet-A      6.3248 eV  196.03 nm  f=0.0278  <S**2>=0.000
     131 -> 149       -0.13252
     134 -> 149       -0.15474
     136 -> 149        0.11302
     137 -> 150        0.10059
     138 -> 149        0.28881
     139 -> 150       -0.11171
     140 -> 149        0.29048
     141 -> 150       -0.12306
     143 -> 150       -0.17451
     145 -> 150        0.12852
     146 -> 151        0.17512
     148 -> 153        0.16378
     148 -> 155       -0.11390

 Excited State  25:      Singlet-A      6.3275 eV  195.94 nm  f=0.0005  <S**2>=0.000
     130 -> 149        0.36390
     133 -> 149       -0.22838
     134 -> 150        0.16068
     139 -> 149       -0.31965
     139 -> 151       -0.12385
     140 -> 150        0.21962

 Excited State  26:      Singlet-A      6.3716 eV  194.59 nm  f=0.0047  <S**2>=0.000
     132 -> 149       -0.10183
     146 -> 153        0.13119
     147 -> 158       -0.16960
     148 -> 161        0.13192
     148 -> 163        0.50593
     148 -> 164        0.22314
     148 -> 168        0.11761

 Excited State  27:      Singlet-A      6.3955 eV  193.86 nm  f=0.0000  <S**2>=0.000
     139 -> 149       -0.14581
     140 -> 150        0.10377
     147 -> 161        0.23551
     148 -> 158        0.10381
     148 -> 160        0.47784
     148 -> 167        0.24546

 Excited State  28:      Singlet-A      6.4094 eV  193.44 nm  f=0.0016  <S**2>=0.000
     146 -> 155        0.11282
     147 -> 154       -0.10386
     147 -> 160        0.22973
     148 -> 156        0.16089
     148 -> 159        0.19498
     148 -> 161        0.41121
     148 -> 163       -0.19188
     148 -> 164        0.20490
     148 -> 166        0.10803
     148 -> 169        0.11571

 Excited State  29:      Singlet-A      6.4301 eV  192.82 nm  f=0.0004  <S**2>=0.000
     130 -> 149        0.12947
     137 -> 149       -0.10460
     143 -> 149       -0.22812
     143 -> 151        0.11587
     144 -> 150        0.36414
     145 -> 149       -0.13956
     145 -> 151        0.17452
     148 -> 158       -0.28018
     148 -> 160        0.12535

 Excited State  30:      Singlet-A      6.4429 eV  192.44 nm  f=0.0000  <S**2>=0.000
     126 -> 149        0.11889
     128 -> 149       -0.14904
     138 -> 149        0.25978
     139 -> 150        0.20995
     140 -> 149       -0.22617
     140 -> 151       -0.11931
     146 -> 151       -0.12760
     147 -> 152        0.19823
     147 -> 157        0.11175
     148 -> 153        0.10616
     148 -> 159       -0.15793
     148 -> 168       -0.15495

 Excited State  31:      Singlet-A      6.4524 eV  192.15 nm  f=0.0000  <S**2>=0.000
     123 -> 149       -0.13077
     130 -> 149        0.25040
     133 -> 149       -0.21322
     134 -> 150        0.11428
     137 -> 149       -0.12833
     139 -> 149        0.27838
     139 -> 151        0.12206
     140 -> 150       -0.21802
     141 -> 149        0.13079
     143 -> 149        0.12267
     144 -> 150       -0.18674
     148 -> 160        0.13315

 Excited State  32:      Singlet-A      6.4692 eV  191.65 nm  f=0.0037  <S**2>=0.000
     146 -> 151        0.13480
     147 -> 152       -0.23840
     147 -> 157        0.16101
     147 -> 158        0.14638
     148 -> 156        0.18186
     148 -> 159       -0.26339
     148 -> 163       -0.18910
     148 -> 164        0.26572
     148 -> 169       -0.18666

 Excited State  33:      Singlet-A      6.4785 eV  191.38 nm  f=0.0155  <S**2>=0.000
     138 -> 149       -0.25309
     139 -> 150       -0.15677
     140 -> 149        0.15145
     145 -> 152       -0.10608
     146 -> 151       -0.22274
     147 -> 152        0.35232
     147 -> 157        0.10877
     148 -> 151       -0.10778
     148 -> 153        0.12877
     148 -> 159       -0.15087

 Excited State  34:      Singlet-A      6.5345 eV  189.74 nm  f=0.0000  <S**2>=0.000
     129 -> 149        0.11779
     135 -> 149       -0.24185
     137 -> 149        0.40443
     138 -> 150        0.28284
     139 -> 149        0.19619
     139 -> 151        0.11187
     143 -> 149       -0.12968
     148 -> 170       -0.14569

 Excited State  35:      Singlet-A      6.5355 eV  189.71 nm  f=0.0036  <S**2>=0.000
     147 -> 152        0.14624
     147 -> 158        0.10144
     147 -> 165       -0.13637
     147 -> 170       -0.17643
     148 -> 153        0.10878
     148 -> 164        0.15224
     148 -> 166       -0.23212
     148 -> 168        0.47168

 Excited State  36:      Singlet-A      6.5549 eV  189.15 nm  f=0.0003  <S**2>=0.000
     121 -> 149       -0.20692
     124 -> 149       -0.10182
     126 -> 149       -0.17734
     128 -> 149        0.32516
     130 -> 150        0.10242
     131 -> 149       -0.18031
     133 -> 150       -0.23557
     134 -> 149        0.24681
     140 -> 149       -0.10663
     148 -> 159       -0.10967

 Excited State  37:      Singlet-A      6.6471 eV  186.52 nm  f=0.0000  <S**2>=0.000
     129 -> 149       -0.13434
     137 -> 149        0.10604
     144 -> 150       -0.10751
     147 -> 166        0.17447
     147 -> 168       -0.16280
     148 -> 162       -0.11976
     148 -> 165        0.28953
     148 -> 170        0.42399

 Excited State  38:      Singlet-A      6.6536 eV  186.34 nm  f=0.0008  <S**2>=0.000
     146 -> 157       -0.14911
     147 -> 156       -0.19996
     147 -> 159        0.14688
     147 -> 161       -0.16560
     148 -> 157       -0.21718
     148 -> 160        0.11276
     148 -> 162        0.44245

 Excited State  39:      Singlet-A      6.6897 eV  185.34 nm  f=0.0000  <S**2>=0.000
     118 -> 149        0.10769
     119 -> 149       -0.11789
     123 -> 149        0.30024
     127 -> 149        0.26559
     128 -> 150        0.19330
     130 -> 149       -0.12776
     131 -> 150       -0.19390
     133 -> 149       -0.27656
     133 -> 151       -0.13461
     134 -> 150        0.14965

 Excited State  40:      Singlet-A      6.6954 eV  185.18 nm  f=0.0002  <S**2>=0.000
     146 -> 156       -0.11684
     146 -> 161       -0.11574
     147 -> 157       -0.16600
     147 -> 162        0.25344
     148 -> 156       -0.13811
     148 -> 159        0.26681
     148 -> 161       -0.17919
     148 -> 164        0.33946
     148 -> 166        0.20365
     148 -> 174        0.13379

 Excited State  41:      Singlet-A      6.8043 eV  182.22 nm  f=0.0001  <S**2>=0.000
     107 -> 149       -0.12603
     115 -> 149        0.13464
     117 -> 149        0.10534
     119 -> 150        0.11238
     120 -> 149        0.37329
     121 -> 149        0.38067
     126 -> 149       -0.16665
     140 -> 149       -0.11119

 Excited State  42:      Singlet-A      6.8199 eV  181.80 nm  f=0.0543  <S**2>=0.000
     132 -> 149       -0.20726
     137 -> 150       -0.13512
     138 -> 149       -0.10904
     143 -> 150       -0.18730
     144 -> 151       -0.20412
     145 -> 152        0.17916
     146 -> 153       -0.12599
     146 -> 155        0.10217
     146 -> 166        0.10046
     147 -> 158        0.14085
     147 -> 165        0.20656
     147 -> 172        0.13182
     148 -> 164       -0.11496
     148 -> 166        0.22595
     148 -> 168        0.16112
     148 -> 171       -0.17890

 Excited State  43:      Singlet-A      6.8386 eV  181.30 nm  f=0.0021  <S**2>=0.000
     146 -> 160       -0.14012
     147 -> 159       -0.22491
     147 -> 164        0.10870
     148 -> 160       -0.14715
     148 -> 167        0.40838
     148 -> 173       -0.28099
     148 -> 175        0.14918
     148 -> 177       -0.12636

 Excited State  44:      Singlet-A      6.8643 eV  180.62 nm  f=0.0026  <S**2>=0.000
     144 -> 150       -0.27842
     144 -> 152       -0.12262
     145 -> 151        0.29949
     146 -> 152        0.22899
     146 -> 158        0.11469
     147 -> 153       -0.14758
     148 -> 158       -0.23279
     148 -> 165        0.11727
     148 -> 170       -0.19342
     148 -> 172        0.13583

 Excited State  45:      Singlet-A      6.8703 eV  180.46 nm  f=0.0014  <S**2>=0.000
     120 -> 149       -0.18708
     121 -> 149        0.27893
     126 -> 149        0.21745
     127 -> 150        0.16982
     130 -> 150       -0.15557
     131 -> 149       -0.21597
     131 -> 151       -0.13493
     133 -> 150       -0.16204
     134 -> 149        0.12757
     136 -> 149       -0.10901

 Excited State  46:      Singlet-A      6.9432 eV  178.57 nm  f=0.0008  <S**2>=0.000
     137 -> 149       -0.17049
     144 -> 150        0.14820
     145 -> 151       -0.18088
     146 -> 165        0.14321
     147 -> 166        0.22791
     147 -> 168        0.15518
     147 -> 171       -0.15758
     148 -> 158        0.15237
     148 -> 165        0.30334
     148 -> 170       -0.16240
     148 -> 172        0.21007

 Excited State  47:      Singlet-A      6.9544 eV  178.28 nm  f=0.0521  <S**2>=0.000
     132 -> 149        0.29047
     136 -> 149       -0.13495
     137 -> 150        0.20117
     138 -> 149        0.23377
     143 -> 150        0.17270
     146 -> 166        0.10525
     147 -> 165        0.20622
     147 -> 172        0.11801
     148 -> 166        0.25032
     148 -> 168        0.13600
     148 -> 171       -0.13894

 Excited State  48:      Singlet-A      6.9926 eV  177.31 nm  f=0.0003  <S**2>=0.000
     118 -> 149        0.33436
     119 -> 149        0.16809
     120 -> 150        0.15394
     123 -> 149        0.24672
     125 -> 149       -0.15260
     126 -> 150       -0.18138
     130 -> 149        0.12168
     130 -> 151        0.12108
     131 -> 150        0.15874
     139 -> 149        0.12335
     141 -> 149        0.12702

 Excited State  49:      Singlet-A      7.0169 eV  176.69 nm  f=0.0006  <S**2>=0.000
     146 -> 159       -0.14542
     147 -> 154        0.10606
     147 -> 160       -0.16308
     147 -> 167        0.19431
     148 -> 153        0.10026
     148 -> 155        0.12814
     148 -> 156        0.10649
     148 -> 169        0.38435
     148 -> 174        0.17052
     148 -> 176       -0.19071
     148 -> 178        0.17547

 Excited State  50:      Singlet-A      7.0288 eV  176.40 nm  f=0.0001  <S**2>=0.000
     144 -> 150       -0.13945
     144 -> 152       -0.13400
     145 -> 151        0.41010
     146 -> 150        0.15491
     146 -> 152       -0.27357
     147 -> 151        0.10754
     147 -> 153        0.26727
     148 -> 152        0.10202
     148 -> 154        0.11014
     148 -> 158        0.16732

 Excited State  51:      Singlet-A      7.0543 eV  175.76 nm  f=0.0222  <S**2>=0.000
     132 -> 149        0.29460
     136 -> 149       -0.14009
     140 -> 149       -0.11938
     141 -> 150        0.10702
     142 -> 149        0.32796
     142 -> 151       -0.17363
     143 -> 150       -0.25049
     144 -> 151       -0.14476
     148 -> 163        0.12082
     148 -> 168       -0.10595

 Excited State  52:      Singlet-A      7.0688 eV  175.40 nm  f=0.0001  <S**2>=0.000
     119 -> 149       -0.20200
     135 -> 149       -0.10576
     139 -> 149       -0.10306
     141 -> 149        0.34375
     141 -> 151       -0.23553
     142 -> 150        0.28605
     142 -> 152       -0.17868
     143 -> 149       -0.16685
     143 -> 151        0.11452

 Excited State  53:      Singlet-A      7.0940 eV  174.77 nm  f=0.0000  <S**2>=0.000
     129 -> 149       -0.13058
     135 -> 149        0.14059
     145 -> 155        0.12668
     146 -> 154       -0.24926
     147 -> 153        0.14424
     147 -> 155        0.29511
     148 -> 154        0.38814

 Excited State  54:      Singlet-A      7.0948 eV  174.75 nm  f=0.0029  <S**2>=0.000
     132 -> 149        0.13345
     141 -> 150       -0.14418
     142 -> 149       -0.19020
     142 -> 151        0.10847
     145 -> 154        0.11447
     146 -> 153       -0.16512
     146 -> 155       -0.15893
     147 -> 154        0.29772
     147 -> 160        0.10277
     148 -> 153        0.20294
     148 -> 155        0.29612

 Excited State  55:      Singlet-A      7.1060 eV  174.48 nm  f=0.0000  <S**2>=0.000
     129 -> 149        0.34477
     132 -> 150       -0.12741
     135 -> 149       -0.28623
     136 -> 150        0.16918
     137 -> 149       -0.18512
     137 -> 151       -0.10646
     141 -> 149       -0.15061
     142 -> 150       -0.10427
     146 -> 154       -0.11387
     147 -> 155        0.12719
     148 -> 154        0.16995
     148 -> 170        0.12102

 Excited State  56:      Singlet-A      7.1163 eV  174.22 nm  f=0.0119  <S**2>=0.000
     132 -> 149       -0.21441
     138 -> 149        0.16161
     141 -> 150        0.24018
     142 -> 149        0.26761
     142 -> 151       -0.15263
     144 -> 151        0.13905
     146 -> 155       -0.13181
     147 -> 154        0.19069
     148 -> 153        0.14743
     148 -> 155        0.15249

 Excited State  57:      Singlet-A      7.1517 eV  173.36 nm  f=0.0001  <S**2>=0.000
     110 -> 149        0.10494
     116 -> 149       -0.14151
     118 -> 149       -0.10051
     119 -> 149        0.34259
     121 -> 150        0.21266
     129 -> 149        0.23810
     132 -> 150       -0.13919
     133 -> 149       -0.11908
     133 -> 151       -0.10432
     134 -> 150        0.11377
     141 -> 149        0.16280

 Excited State  58:      Singlet-A      7.1689 eV  172.95 nm  f=0.0141  <S**2>=0.000
     132 -> 149        0.16291
     135 -> 150       -0.27771
     136 -> 149        0.52346
     136 -> 151        0.14505
     141 -> 150        0.10869

 Excited State  59:      Singlet-A      7.2020 eV  172.15 nm  f=0.0002  <S**2>=0.000
     119 -> 149       -0.12764
     129 -> 149        0.31568
     132 -> 150       -0.13340
     135 -> 149        0.34398
     135 -> 151        0.13309
     136 -> 150       -0.19960
     137 -> 149        0.21627
     147 -> 153        0.10598

 Excited State  60:      Singlet-A      7.2552 eV  170.89 nm  f=0.0000  <S**2>=0.000
     129 -> 149       -0.13673
     146 -> 152        0.43714
     146 -> 158       -0.11567
     147 -> 151       -0.12870
     147 -> 153        0.32050

 The electronic state is 1-A.
 Alpha  occ. eigenvalues --  -10.55339 -10.55339 -10.55171 -10.55171 -10.54637
 Alpha  occ. eigenvalues --  -10.54637 -10.54595 -10.54595 -10.54250 -10.54160
 Alpha  occ. eigenvalues --  -10.54010 -10.54009 -10.53917 -10.53916 -10.53890
 Alpha  occ. eigenvalues --  -10.53890 -10.53752 -10.53752 -10.53612 -10.53612
 Alpha  occ. eigenvalues --  -10.53601 -10.53601 -10.53311 -10.53311 -10.52631
 Alpha  occ. eigenvalues --  -10.52631 -10.52433 -10.52433 -10.52362 -10.52362
 Alpha  occ. eigenvalues --  -10.52152 -10.52152 -10.51896 -10.51896 -10.51823
 Alpha  occ. eigenvalues --  -10.51823 -10.51297 -10.51297 -10.51273 -10.51273
 Alpha  occ. eigenvalues --   -0.94995  -0.94990  -0.94067  -0.93481  -0.92420
 Alpha  occ. eigenvalues --   -0.91724  -0.89118  -0.87955  -0.87932  -0.87392
 Alpha  occ. eigenvalues --   -0.86585  -0.84988  -0.83781  -0.81376  -0.80998
 Alpha  occ. eigenvalues --   -0.79284  -0.77564  -0.77540  -0.76941  -0.76700
 Alpha  occ. eigenvalues --   -0.76658  -0.76637  -0.75665  -0.75624  -0.75188
 Alpha  occ. eigenvalues --   -0.71970  -0.69777  -0.68129  -0.66650  -0.64743
 Alpha  occ. eigenvalues --   -0.63727  -0.63725  -0.62555  -0.62154  -0.60942
 Alpha  occ. eigenvalues --   -0.60515  -0.59747  -0.58552  -0.57217  -0.56857
 Alpha  occ. eigenvalues --   -0.55246  -0.54385  -0.54127  -0.53673  -0.53332
 Alpha  occ. eigenvalues --   -0.52663  -0.51392  -0.51073  -0.50756  -0.50533
 Alpha  occ. eigenvalues --   -0.49469  -0.49248  -0.48590  -0.48441  -0.48375
 Alpha  occ. eigenvalues --   -0.48322  -0.48210  -0.48110  -0.47818  -0.47771
 Alpha  occ. eigenvalues --   -0.47651  -0.47615  -0.46250  -0.46209  -0.46080
 Alpha  occ. eigenvalues --   -0.45953  -0.45267  -0.44711  -0.44649  -0.44573
 Alpha  occ. eigenvalues --   -0.44352  -0.44350  -0.43540  -0.43198  -0.42808
 Alpha  occ. eigenvalues --   -0.42418  -0.42326  -0.42110  -0.41793  -0.41632
 Alpha  occ. eigenvalues --   -0.41131  -0.40677  -0.40579  -0.40394  -0.40391
 Alpha  occ. eigenvalues --   -0.40131  -0.39880  -0.39697  -0.39500  -0.39253
 Alpha  occ. eigenvalues --   -0.39001  -0.38889  -0.38871  -0.38815  -0.37260
 Alpha  occ. eigenvalues --   -0.37077  -0.36436  -0.35952  -0.35448  -0.35380
 Alpha  occ. eigenvalues --   -0.34022  -0.33959  -0.33699  -0.31082  -0.28981
 Alpha  occ. eigenvalues --   -0.26234  -0.23448  -0.20644
 Alpha virt. eigenvalues --   -0.06848  -0.02984   0.00340   0.03788   0.06392
 Alpha virt. eigenvalues --    0.06559   0.06650   0.07839   0.07869   0.08655
 Alpha virt. eigenvalues --    0.08759   0.08879   0.08941   0.09181   0.09820

 Mulliken charges:
               1
     1  C   -0.363786
     2  C   -0.326447
     3  C   -0.328992
     4  C    0.108094
     5  C   -0.028858
     6  C    0.001965
     7  C   -0.198222
     8  C   -0.223104
     9  C    0.057046
    10  C   -0.179868
    11  C   -0.189033
    12  C   -0.234354
    13  C    0.092966
    14  C   -0.161146
    15  C   -0.209895
    16  C   -0.209894
    17  C   -0.161146
    18  C    0.092966
    19  C   -0.234354
    20  C   -0.189033
    21  C   -0.179867
    22  C    0.057045
    23  C   -0.223104
    24  C   -0.198222
    25  C   -0.028859
    26  C    0.001965
    27  C   -0.498410
    28  C   -0.491873
    29  C   -0.583212
    30  C   -0.363785
    31  C   -0.326447
    32  C   -0.328992
    33  C    0.108093
    34  C   -0.498410
    35  C   -0.491874
    36  C   -0.583213
    37  C   -0.570720
    38  C   -0.564712
    39  C   -0.564712
    40  C   -0.570721
    41  H    0.172646
    42  H    0.174746
    43  H    0.162670
    44  H    0.164482
    45  H    0.180871
    46  H    0.174850
    47  H    0.202677
    48  H    0.183073
    49  H    0.172465
    50  H    0.189307
    51  H    0.171414
    52  H    0.175026
    53  H    0.165512
    54  H    0.165512
    55  H    0.175026
    56  H    0.171415
    57  H    0.189307
    58  H    0.172465
    59  H    0.183073
    60  H    0.202678
    61  H    0.171167
    62  H    0.168877
    63  H    0.161795
    64  H    0.163447
    65  H    0.166619
    66  H    0.166909
    67  H    0.172481
    68  H    0.173341
    69  H    0.195648
    70  H    0.174746
    71  H    0.172645
    72  H    0.162670
    73  H    0.164482
    74  H    0.180871
    75  H    0.174850
    76  H    0.168877
    77  H    0.161795
    78  H    0.171167
    79  H    0.163447
    80  H    0.166619
    81  H    0.166909
    82  H    0.172481
    83  H    0.173341
    84  H    0.195647
    85  H    0.183109
    86  H    0.164435
    87  H    0.183184
    88  H    0.182952
    89  H    0.165927
    90  H    0.182931
    91  H    0.182930
    92  H    0.182952
    93  H    0.165927
    94  H    0.164436
    95  H    0.183184
    96  H    0.183108
 Sum of Mulliken charges =  -0.00000

 Dipole moment (field-independent basis, Debye):
    X=              0.0000    Y=             -0.0000    Z=             -0.5416  Tot=              0.5416
 Quadrupole moment (field-independent basis, Debye-Ang):
   XX=           -156.9222   YY=           -225.8416   ZZ=           -264.4259
   XY=            -15.1139   XZ=             -0.0002   YZ=              0.0000

 Normal termination of Gaussian 16 at Mon Nov  6 19:30:56 2023.
