 Gaussian 16, Revision C.02,
 Gaussian 16:  ES64L-G16RevC.02  7-Dec-2021

 -----------------------------------------------------------
 # td=(nstates=50) M062X/def2TZVP scrf(smd, solvent=ethanol)
 -----------------------------------------------------------

 ---
 B-2
 ---
 Symbolic Z-matrix:
 Charge =  0 Multiplicity = 1

                         Standard orientation:
 ---------------------------------------------------------------------
 Center     Atomic      Atomic             Coordinates (Angstroms)
 Number     Number       Type             X           Y           Z
 ---------------------------------------------------------------------
      1          6           0        4.186043   -0.985243   -0.000113
      2          6           0        2.965678   -0.099955    0.000017
      3          6           0        1.724259   -0.636470   -0.000213
      4          6           0        0.452578    0.059668   -0.000179
      5          6           0       -0.741079   -0.579413   -0.000205
      6          6           0       -2.064372    0.040415   -0.000137
      7          6           0       -3.152878   -0.763225    0.000253
      8          6           0       -4.604173   -0.385851    0.000427
      9          6           0        3.260391    1.378273    0.000567
     10          6           0       -2.133175    1.550261   -0.000541
     11          1           0        4.817179   -0.791217   -0.879673
     12          1           0        4.817098   -0.791647    0.879598
     13          1           0        3.922096   -2.047445   -0.000374
     14          1           0        1.652379   -1.725280   -0.000493
     15          1           0        0.469127    1.146468   -0.000113
     16          1           0       -0.735417   -1.670538   -0.000304
     17          1           0       -2.968126   -1.838635    0.000440
     18          1           0       -4.773466    0.693748    0.001475
     19          1           0       -5.114894   -0.802710   -0.879231
     20          1           0       -5.115042   -0.804470    0.879137
     21          1           0        2.363003    2.000757    0.000075
     22          1           0        3.859006    1.653716    0.880554
     23          1           0        3.860320    1.654180   -0.878355
     24          1           0       -1.627265    1.964044   -0.882102
     25          1           0       -3.158688    1.923675   -0.000452
     26          1           0       -1.626926    1.964596    0.880567
 ---------------------------------------------------------------------

 SCF Done:  E(RM062X) =  -390.618569060     A.U. after   12 cycles

 Excitation energies and oscillator strengths:

 Excited State   1:      Singlet-A      4.4747 eV  277.08 nm  f=1.4473  <S**2>=0.000
      38 -> 39         0.70550
 This state for optimization and/or second-order correction.
 Total Energy, E(TD-HF/TD-DFT) =  -390.454125382
 Copying the excited state density for this state as the 1-particle RhoCI density.

 Excited State   2:      Singlet-A      6.2298 eV  199.02 nm  f=0.0090  <S**2>=0.000
      37 -> 39         0.67121
      38 -> 41        -0.18719

 Excited State   3:      Singlet-A      6.5757 eV  188.55 nm  f=0.0172  <S**2>=0.000
      37 -> 39         0.19406
      38 -> 41         0.67131

 Excited State   4:      Singlet-A      6.6318 eV  186.95 nm  f=0.0080  <S**2>=0.000
      37 -> 42         0.11584
      38 -> 40         0.67660

 Excited State   5:      Singlet-A      6.8225 eV  181.73 nm  f=0.0002  <S**2>=0.000
      34 -> 41        -0.11079
      36 -> 39         0.58174
      38 -> 43         0.30969
      38 -> 45        -0.13632

 Excited State   6:      Singlet-A      6.9202 eV  179.16 nm  f=0.0000  <S**2>=0.000
      37 -> 40         0.15075
      38 -> 42         0.62973
      38 -> 43        -0.19496

 Excited State   7:      Singlet-A      6.9434 eV  178.56 nm  f=0.0002  <S**2>=0.000
      36 -> 39        -0.33991
      38 -> 42         0.18469
      38 -> 43         0.52101
      38 -> 45        -0.21505

 Excited State   8:      Singlet-A      7.0378 eV  176.17 nm  f=0.0236  <S**2>=0.000
      35 -> 39         0.15542
      38 -> 44         0.67872

 Excited State   9:      Singlet-A      7.3305 eV  169.14 nm  f=0.0000  <S**2>=0.000
      34 -> 39         0.63375
      36 -> 41        -0.19154

 Excited State  10:      Singlet-A      7.5485 eV  164.25 nm  f=0.0002  <S**2>=0.000
      30 -> 39        -0.14054
      31 -> 41         0.11100
      32 -> 39         0.23444
      33 -> 39         0.58886

 Excited State  11:      Singlet-A      7.6655 eV  161.74 nm  f=0.0000  <S**2>=0.000
      37 -> 42         0.13490
      38 -> 43         0.22187
      38 -> 45         0.58541
      38 -> 47         0.19488

 Excited State  12:      Singlet-A      7.7842 eV  159.28 nm  f=0.0382  <S**2>=0.000
      35 -> 39         0.66257
      37 -> 41         0.18364
      38 -> 44        -0.12478

 Excited State  13:      Singlet-A      7.8768 eV  157.40 nm  f=0.0000  <S**2>=0.000
      32 -> 39        -0.10235
      37 -> 43         0.14060
      37 -> 45        -0.10882
      38 -> 45        -0.15330
      38 -> 46         0.51652
      38 -> 47         0.26499
      38 -> 49        -0.20059

 Excited State  14:      Singlet-A      7.9524 eV  155.91 nm  f=0.0002  <S**2>=0.000
      30 -> 39        -0.24347
      32 -> 39         0.42974
      33 -> 39        -0.22745
      34 -> 41         0.18855
      36 -> 44         0.10193
      38 -> 47         0.25568
      38 -> 48        -0.15791

 Excited State  15:      Singlet-A      8.0633 eV  153.76 nm  f=0.0000  <S**2>=0.000
      30 -> 39         0.11661
      32 -> 39        -0.21094
      33 -> 39         0.11286
      38 -> 45        -0.10514
      38 -> 46        -0.18134
      38 -> 47         0.40827
      38 -> 48        -0.28871
      38 -> 49         0.26319

 Excited State  16:      Singlet-A      8.2599 eV  150.10 nm  f=0.0004  <S**2>=0.000
      31 -> 39        -0.26704
      33 -> 41        -0.12667
      37 -> 46         0.12713
      38 -> 46        -0.19503
      38 -> 47         0.24471
      38 -> 48         0.48537

 Excited State  17:      Singlet-A      8.3242 eV  148.94 nm  f=0.0041  <S**2>=0.000
      28 -> 39         0.11213
      31 -> 39         0.50470
      33 -> 41         0.22827
      36 -> 41        -0.11550
      38 -> 46        -0.16724
      38 -> 47         0.14115
      38 -> 48         0.22339

 Excited State  18:      Singlet-A      8.4433 eV  146.84 nm  f=0.0018  <S**2>=0.000
      37 -> 45         0.10706
      37 -> 47         0.14628
      38 -> 46         0.26656
      38 -> 48         0.18072
      38 -> 49         0.56833

 Excited State  19:      Singlet-A      8.6982 eV  142.54 nm  f=0.2167  <S**2>=0.000
      35 -> 39        -0.13654
      37 -> 41         0.55102
      38 -> 50        -0.34133
      38 -> 52         0.15737

 Excited State  20:      Singlet-A      8.7241 eV  142.12 nm  f=0.0015  <S**2>=0.000
      37 -> 40         0.54448
      37 -> 42         0.26921
      37 -> 45        -0.11430
      38 -> 42        -0.13376
      38 -> 46         0.11108
      38 -> 53        -0.13793

 Excited State  21:      Singlet-A      8.7439 eV  141.80 nm  f=0.0012  <S**2>=0.000
      22 -> 39        -0.11125
      26 -> 39        -0.10156
      30 -> 39         0.56222
      32 -> 39         0.30161
      32 -> 41        -0.13250

 Excited State  22:      Singlet-A      8.7881 eV  141.08 nm  f=0.1229  <S**2>=0.000
      37 -> 41         0.34419
      37 -> 50         0.10358
      38 -> 50         0.54554
      38 -> 52        -0.16898

 Excited State  23:      Singlet-A      8.9469 eV  138.58 nm  f=0.0122  <S**2>=0.000
      37 -> 51        -0.16117
      38 -> 51         0.66775

 Excited State  24:      Singlet-A      9.0173 eV  137.50 nm  f=0.0151  <S**2>=0.000
      35 -> 41        -0.15782
      37 -> 44         0.47606
      38 -> 50         0.16777
      38 -> 51        -0.10582
      38 -> 52         0.41563

 Excited State  25:      Singlet-A      9.0485 eV  137.02 nm  f=0.0047  <S**2>=0.000
      37 -> 40         0.21098
      37 -> 42        -0.15972
      37 -> 49         0.16864
      38 -> 53         0.49810
      38 -> 54         0.23202
      38 -> 55         0.10395

 Excited State  26:      Singlet-A      9.1365 eV  135.70 nm  f=0.0005  <S**2>=0.000
      28 -> 39        -0.28175
      31 -> 39         0.12140
      34 -> 39         0.10549
      36 -> 41         0.17578
      37 -> 43         0.46700
      37 -> 45        -0.15669

 Excited State  27:      Singlet-A      9.1898 eV  134.91 nm  f=0.0025  <S**2>=0.000
      28 -> 39         0.30801
      31 -> 39        -0.12793
      35 -> 40         0.10874
      36 -> 41        -0.12540
      37 -> 40        -0.17488
      37 -> 42         0.32708
      37 -> 43         0.25865
      38 -> 54         0.23297

 Excited State  28:      Singlet-A      9.2064 eV  134.67 nm  f=0.0055  <S**2>=0.000
      28 -> 39        -0.25558
      36 -> 41         0.10653
      37 -> 40        -0.16236
      37 -> 43        -0.14686
      38 -> 53        -0.16908
      38 -> 54         0.44715
      38 -> 55         0.23235

 Excited State  29:      Singlet-A      9.2582 eV  133.92 nm  f=0.0014  <S**2>=0.000
      28 -> 39        -0.21194
      35 -> 40         0.10681
      37 -> 40        -0.13021
      37 -> 42         0.41979
      37 -> 43        -0.21834
      37 -> 45         0.12287
      38 -> 40        -0.11603
      38 -> 53         0.29140
      38 -> 54        -0.12159

 Excited State  30:      Singlet-A      9.3096 eV  133.18 nm  f=0.0089  <S**2>=0.000
      35 -> 41         0.17145
      37 -> 41        -0.10390
      37 -> 44        -0.41749
      38 -> 50         0.11266
      38 -> 52         0.48928

 Excited State  31:      Singlet-A      9.4258 eV  131.54 nm  f=0.0012  <S**2>=0.000
      26 -> 39         0.33264
      28 -> 39        -0.21463
      32 -> 39         0.12962
      34 -> 44        -0.10111
      36 -> 41        -0.15600
      38 -> 54        -0.19848
      38 -> 55         0.36680

 Excited State  32:      Singlet-A      9.4335 eV  131.43 nm  f=0.0001  <S**2>=0.000
      26 -> 39        -0.31346
      28 -> 39         0.17565
      31 -> 41        -0.11535
      32 -> 39        -0.10334
      34 -> 44         0.10671
      36 -> 41         0.13856
      37 -> 49         0.11771
      38 -> 54        -0.22508
      38 -> 55         0.39463

 Excited State  33:      Singlet-A      9.4717 eV  130.90 nm  f=0.0723  <S**2>=0.000
      29 -> 39         0.67010
      29 -> 41        -0.20021

 Excited State  34:      Singlet-A      9.5614 eV  129.67 nm  f=0.0000  <S**2>=0.000
      26 -> 39         0.26278
      28 -> 39         0.19675
      30 -> 41        -0.12836
      32 -> 41         0.12906
      34 -> 39         0.13482
      34 -> 41        -0.12235
      34 -> 44         0.19473
      36 -> 41         0.45185
      36 -> 44        -0.11992

 Excited State  35:      Singlet-A      9.6234 eV  128.84 nm  f=0.0004  <S**2>=0.000
      23 -> 39         0.14783
      28 -> 41         0.12030
      30 -> 41         0.10424
      32 -> 39        -0.14308
      34 -> 41         0.33044
      36 -> 41         0.14489
      36 -> 44         0.39634
      38 -> 54        -0.11288
      38 -> 56        -0.14037

 Excited State  36:      Singlet-A      9.6518 eV  128.46 nm  f=0.0089  <S**2>=0.000
      36 -> 44         0.10070
      37 -> 54        -0.14668
      38 -> 56         0.58057

 Excited State  37:      Singlet-A      9.8156 eV  126.31 nm  f=0.0035  <S**2>=0.000
      35 -> 43        -0.14980
      37 -> 43        -0.12406
      37 -> 45        -0.20172
      37 -> 46        -0.17351
      37 -> 47        -0.15644
      37 -> 48        -0.17237
      37 -> 53         0.11061
      38 -> 54        -0.10911
      38 -> 56        -0.11179
      38 -> 58         0.31963
      38 -> 59         0.35367
      38 -> 61        -0.10469

 Excited State  38:      Singlet-A      9.8991 eV  125.25 nm  f=0.0054  <S**2>=0.000
      37 -> 43         0.17339
      37 -> 45         0.54177
      37 -> 46        -0.13218
      37 -> 47        -0.14074
      38 -> 58         0.16946

 Excited State  39:      Singlet-A      9.9252 eV  124.92 nm  f=0.0186  <S**2>=0.000
      34 -> 42         0.11485
      36 -> 40        -0.25092
      37 -> 57        -0.14380
      38 -> 57         0.57837

 Excited State  40:      Singlet-A      9.9753 eV  124.29 nm  f=0.0146  <S**2>=0.000
      27 -> 39        -0.39679
      34 -> 40         0.10862
      34 -> 42        -0.21036
      36 -> 40         0.40535
      38 -> 57         0.16638
      38 -> 60         0.17187

 Excited State  41:      Singlet-A      9.9824 eV  124.20 nm  f=0.1054  <S**2>=0.000
      25 -> 39        -0.10894
      27 -> 39         0.48886
      27 -> 41         0.11518
      34 -> 42        -0.14810
      35 -> 41         0.12153
      36 -> 40         0.29579
      38 -> 57         0.24329
      38 -> 60        -0.10178

 Excited State  42:      Singlet-A     10.0161 eV  123.78 nm  f=0.0042  <S**2>=0.000
      35 -> 40        -0.21048
      35 -> 42        -0.10898
      35 -> 43         0.23161
      37 -> 46         0.34704
      37 -> 49        -0.16833
      37 -> 53         0.12818
      38 -> 55         0.17813
      38 -> 58         0.18882
      38 -> 59         0.23764
      38 -> 64        -0.10809

 Excited State  43:      Singlet-A     10.0685 eV  123.14 nm  f=0.0121  <S**2>=0.000
      35 -> 41         0.42216
      37 -> 44         0.22117
      37 -> 52         0.11763
      38 -> 57        -0.14834
      38 -> 60         0.34542
      38 -> 63         0.23025

 Excited State  44:      Singlet-A     10.1032 eV  122.72 nm  f=0.0004  <S**2>=0.000
      32 -> 42        -0.10892
      34 -> 40        -0.41558
      34 -> 42        -0.17153
      34 -> 43        -0.11797
      36 -> 40         0.16476
      36 -> 42         0.43652

 Excited State  45:      Singlet-A     10.1101 eV  122.63 nm  f=0.0248  <S**2>=0.000
      37 -> 47         0.13203
      37 -> 55        -0.14878
      37 -> 58         0.10871
      38 -> 58         0.44893
      38 -> 59        -0.31914
      38 -> 62        -0.23406

 Excited State  46:      Singlet-A     10.1520 eV  122.13 nm  f=0.0161  <S**2>=0.000
      35 -> 40         0.15282
      35 -> 45        -0.13460
      37 -> 42        -0.13802
      37 -> 47         0.47813
      37 -> 48        -0.16891
      37 -> 49         0.17484
      38 -> 49        -0.12019
      38 -> 59         0.18752
      38 -> 61        -0.12357

 Excited State  47:      Singlet-A     10.2396 eV  121.08 nm  f=0.0010  <S**2>=0.000
      22 -> 39         0.22104
      26 -> 39         0.11611
      26 -> 41        -0.13069
      31 -> 41        -0.12124
      33 -> 44         0.18650
      38 -> 59        -0.10471
      38 -> 62         0.48836

 Excited State  48:      Singlet-A     10.2576 eV  120.87 nm  f=0.0123  <S**2>=0.000
      27 -> 39         0.19619
      35 -> 41        -0.41070
      37 -> 44        -0.10044
      37 -> 60         0.13004
      38 -> 60         0.47758

 Excited State  49:      Singlet-A     10.2682 eV  120.75 nm  f=0.0010  <S**2>=0.000
      22 -> 39        -0.22036
      23 -> 39         0.12876
      26 -> 39        -0.15243
      26 -> 41         0.13684
      30 -> 39        -0.10071
      31 -> 41         0.15398
      33 -> 44        -0.24565
      34 -> 41        -0.17084
      38 -> 58         0.19226
      38 -> 59        -0.17091
      38 -> 62         0.32270

 Excited State  50:      Singlet-A     10.3528 eV  119.76 nm  f=0.0009  <S**2>=0.000
      23 -> 39         0.11716
      23 -> 41        -0.13207
      26 -> 39        -0.10721
      28 -> 39        -0.11222
      30 -> 39        -0.11581
      31 -> 39        -0.23303
      31 -> 44        -0.15418
      33 -> 41         0.48324
      34 -> 44         0.15435

 The electronic state is 1-A.
 Alpha  occ. eigenvalues --  -10.54696 -10.54279 -10.53534 -10.53470 -10.53364
 Alpha  occ. eigenvalues --  -10.52734 -10.52301 -10.52227 -10.52148 -10.52120
 Alpha  occ. eigenvalues --   -0.92822  -0.90685  -0.85508  -0.81015  -0.77637
 Alpha  occ. eigenvalues --   -0.76801  -0.73474  -0.64758  -0.60186  -0.58097
 Alpha  occ. eigenvalues --   -0.54420  -0.52293  -0.50198  -0.49344  -0.48361
 Alpha  occ. eigenvalues --   -0.47426  -0.45963  -0.44053  -0.43940  -0.43220
 Alpha  occ. eigenvalues --   -0.42708  -0.41993  -0.40919  -0.39258  -0.38418
 Alpha  occ. eigenvalues --   -0.37897  -0.31927  -0.24406
 Alpha virt. eigenvalues --   -0.00747   0.07782   0.07835   0.08636   0.09837
 Alpha virt. eigenvalues --    0.11054   0.11628   0.12573   0.13275   0.14174
 Alpha virt. eigenvalues --    0.14612   0.15452   0.15640   0.16947   0.17515

 Mulliken charges:
               1
     1  C   -0.486087
     2  C    0.071217
     3  C   -0.222887
     4  C   -0.193247
     5  C   -0.219356
     6  C    0.031960
     7  C   -0.121912
     8  C   -0.493137
     9  C   -0.491533
    10  C   -0.552685
    11  H    0.166745
    12  H    0.166729
    13  H    0.157000
    14  H    0.168163
    15  H    0.187795
    16  H    0.167300
    17  H    0.165688
    18  H    0.153595
    19  H    0.167940
    20  H    0.167914
    21  H    0.154026
    22  H    0.170392
    23  H    0.170363
    24  H    0.179172
    25  H    0.155700
    26  H    0.179147
 Sum of Mulliken charges =  -0.00000

 Dipole moment (field-independent basis, Debye):
    X=              0.1292    Y=              0.5675    Z=              0.0002  Tot=              0.5821
 Quadrupole moment (field-independent basis, Debye-Ang):
   XX=            -51.8649   YY=            -59.2248   ZZ=            -68.1442
   XY=              1.1188   XZ=              0.0012   YZ=              0.0003

 Normal termination of Gaussian 16 at Sat Nov  4 18:48:25 2023.
