 Gaussian 16, Revision C.02,
 Gaussian 16:  ES64L-G16RevC.02  7-Dec-2021

 ------------------------------------------------------------
 # td=(nstates=150) M062X/def2TZVP scrf(smd, solvent=ethanol)
 ------------------------------------------------------------

 ---
 A-4
 ---
 Symbolic Z-matrix:
 Charge =  1 Multiplicity = 1

                         Standard orientation:
 ---------------------------------------------------------------------
 Center     Atomic      Atomic             Coordinates (Angstroms)
 Number     Number       Type             X           Y           Z
 ---------------------------------------------------------------------
      1          6           0       -3.663712   -1.051948   -0.111557
      2          6           0       -2.389638   -0.479979   -0.083458
      3          6           0       -1.194967   -1.195004   -0.064041
      4          6           0        0.058349   -0.578322   -0.035613
      5          6           0       -4.855344   -0.323764   -0.124892
      6         16           0       -4.926662    1.436711   -0.060618
      7          6           0       -6.688233    1.402029   -0.083292
      8          6           0       -7.154955    0.079357   -0.139452
      9          7           0       -6.111858   -0.857268   -0.183590
     10          6           0       -7.565153    2.482703   -0.048916
     11          6           0       -8.934956    2.220220   -0.065794
     12          6           0       -9.407072    0.902760   -0.113224
     13          6           0       -8.529361   -0.179533   -0.148820
     14          6           0       -6.366284   -2.306872   -0.248314
     15          6           0       -6.467137   -2.955883    1.133259
     16          6           0        1.282162   -1.246091   -0.016052
     17          6           0        2.511127   -0.582889    0.011938
     18          6           0        3.741215   -1.244345   -0.008435
     19          6           0        5.052439   -0.749020    0.008808
     20         16           0        6.362590   -1.866987   -0.365292
     21          6           0        7.562983   -0.600806   -0.165520
     22          6           0        6.941017    0.612357    0.169846
     23          7           0        5.544832    0.495298    0.283261
     24          6           0        8.946272   -0.695535   -0.302110
     25          6           0        9.708364    0.454142   -0.100703
     26          6           0        9.092982    1.668657    0.228770
     27          6           0        7.709445    1.764545    0.366500
     28          6           0        4.732809    1.623027    0.770139
     29          6           0        4.282282    2.569892   -0.344236
     30          1           0       -3.731831   -2.134826   -0.113428
     31          1           0       -2.310249    0.607987   -0.076294
     32          1           0       -1.237617   -2.283434   -0.072611
     33          1           0        0.079156    0.512977   -0.027655
     34          1           0       -7.192939    3.501353   -0.008437
     35          1           0       -9.638205    3.046285   -0.038434
     36          1           0      -10.476042    0.714855   -0.119701
     37          1           0       -8.914544   -1.192671   -0.174894
     38          1           0       -7.289207   -2.442036   -0.816617
     39          1           0       -5.570728   -2.757498   -0.845647
     40          1           0       -6.666359   -4.026758    1.023381
     41          1           0       -5.536643   -2.835556    1.696522
     42          1           0       -7.280055   -2.514652    1.717995
     43          1           0        1.279871   -2.335280   -0.024232
     44          1           0        2.472390    0.502280    0.013643
     45          1           0        3.691082   -2.326769   -0.105404
     46          1           0        9.416627   -1.639291   -0.558710
     47          1           0       10.787594    0.405440   -0.203502
     48          1           0        9.700309    2.555856    0.377290
     49          1           0        7.251286    2.716142    0.611187
     50          1           0        3.887111    1.202637    1.316886
     51          1           0        5.342782    2.154926    1.505154
     52          1           0        3.668719    2.054906   -1.089954
     53          1           0        3.692500    3.387191    0.083941
     54          1           0        5.141488    3.005946   -0.862588
 ---------------------------------------------------------------------

 SCF Done:  E(RM062X) =  -1873.37918906     A.U. after   16 cycles

 Excitation energies and oscillator strengths:

 Excited State   1:      Singlet-A      1.9889 eV  623.38 nm  f=2.7913  <S**2>=0.000
     109 -> 112        0.11890
     110 -> 111        0.69496
 This state for optimization and/or second-order correction.
 Total Energy, E(TD-HF/TD-DFT) =  -1873.30609813
 Copying the excited state density for this state as the 1-particle RhoCI density.

 Excited State   2:      Singlet-A      3.7000 eV  335.09 nm  f=0.0620  <S**2>=0.000
     109 -> 111        0.65237
     110 -> 112        0.23525

 Excited State   3:      Singlet-A      4.0322 eV  307.49 nm  f=0.0592  <S**2>=0.000
     109 -> 111       -0.23724
     110 -> 112        0.65124

 Excited State   4:      Singlet-A      4.3846 eV  282.77 nm  f=0.0136  <S**2>=0.000
     108 -> 111        0.55104
     108 -> 112        0.16992
     109 -> 114        0.12111
     110 -> 113        0.24655
     110 -> 114        0.20550

 Excited State   5:      Singlet-A      4.4132 eV  280.94 nm  f=0.0140  <S**2>=0.000
     107 -> 111        0.57980
     107 -> 112       -0.16775
     109 -> 113        0.11443
     110 -> 113       -0.17007
     110 -> 114        0.23583

 Excited State   6:      Singlet-A      4.5151 eV  274.60 nm  f=0.0037  <S**2>=0.000
     107 -> 116       -0.14681
     109 -> 116       -0.25700
     110 -> 116        0.60190

 Excited State   7:      Singlet-A      4.5841 eV  270.47 nm  f=0.0048  <S**2>=0.000
     108 -> 118        0.15387
     109 -> 118        0.25321
     110 -> 118        0.60520

 Excited State   8:      Singlet-A      4.6268 eV  267.97 nm  f=0.1053  <S**2>=0.000
     108 -> 111       -0.34660
     109 -> 113        0.12247
     109 -> 114        0.13099
     110 -> 113        0.36410
     110 -> 114        0.39805
     110 -> 118       -0.13348

 Excited State   9:      Singlet-A      4.6717 eV  265.40 nm  f=0.0637  <S**2>=0.000
     106 -> 111       -0.11786
     107 -> 111        0.32174
     109 -> 113       -0.13071
     109 -> 114        0.11608
     110 -> 113        0.40844
     110 -> 114       -0.36528

 Excited State  10:      Singlet-A      4.7540 eV  260.80 nm  f=0.0096  <S**2>=0.000
     106 -> 111        0.61754
     109 -> 112       -0.12512
     110 -> 113        0.12148
     110 -> 115       -0.18479

 Excited State  11:      Singlet-A      4.9557 eV  250.19 nm  f=0.0313  <S**2>=0.000
     106 -> 111        0.23656
     109 -> 117        0.14691
     110 -> 115        0.60464

 Excited State  12:      Singlet-A      5.1199 eV  242.16 nm  f=0.0114  <S**2>=0.000
     105 -> 111       -0.10673
     109 -> 115        0.18762
     110 -> 117        0.60903

 Excited State  13:      Singlet-A      5.4430 eV  227.78 nm  f=0.0007  <S**2>=0.000
     105 -> 111        0.60753
     106 -> 112        0.13059
     110 -> 117        0.18746

 Excited State  14:      Singlet-A      5.5510 eV  223.35 nm  f=0.0480  <S**2>=0.000
     106 -> 111        0.10882
     109 -> 112        0.59612
     110 -> 111       -0.12335
     110 -> 115       -0.16507

 Excited State  15:      Singlet-A      5.7164 eV  216.89 nm  f=0.0862  <S**2>=0.000
     106 -> 113       -0.14017
     107 -> 113        0.13318
     107 -> 114       -0.14299
     107 -> 115       -0.10964
     108 -> 113       -0.12293
     108 -> 114       -0.14927
     108 -> 115        0.10803
     108 -> 117        0.11882
     109 -> 112       -0.11966
     109 -> 114        0.15207
     109 -> 117        0.13068
     110 -> 113       -0.17573
     110 -> 119        0.44861

 Excited State  16:      Singlet-A      5.8045 eV  213.60 nm  f=0.0557  <S**2>=0.000
     105 -> 111        0.26863
     105 -> 113       -0.12827
     106 -> 114       -0.20485
     107 -> 113       -0.17685
     107 -> 114        0.16099
     107 -> 115        0.16976
     108 -> 112        0.11239
     108 -> 113       -0.12263
     108 -> 114       -0.15969
     108 -> 115        0.13047
     108 -> 117        0.15403
     109 -> 113        0.23022
     110 -> 114       -0.19977
     110 -> 117       -0.15460

 Excited State  17:      Singlet-A      5.8569 eV  211.69 nm  f=0.0652  <S**2>=0.000
     106 -> 113        0.15072
     107 -> 113       -0.10100
     107 -> 114        0.11554
     107 -> 115        0.12903
     107 -> 116        0.17566
     109 -> 112        0.18791
     109 -> 114       -0.18821
     110 -> 113        0.13964
     110 -> 119        0.42595

 Excited State  18:      Singlet-A      5.8888 eV  210.54 nm  f=0.0027  <S**2>=0.000
     103 -> 116        0.18451
     107 -> 116        0.53087
     109 -> 116        0.11038
     110 -> 116        0.22206
     110 -> 119       -0.20988

 Excited State  19:      Singlet-A      5.9330 eV  208.97 nm  f=0.0026  <S**2>=0.000
     104 -> 118        0.19219
     108 -> 118        0.54708
     109 -> 118        0.15003
     110 -> 118       -0.25058

 Excited State  20:      Singlet-A      6.0695 eV  204.28 nm  f=0.1262  <S**2>=0.000
     106 -> 114       -0.11802
     108 -> 112        0.19927
     108 -> 113        0.37027
     108 -> 114        0.38085
     108 -> 117        0.11974
     109 -> 113        0.17964
     109 -> 114        0.13828

 Excited State  21:      Singlet-A      6.0873 eV  203.68 nm  f=0.1293  <S**2>=0.000
     106 -> 113        0.12588
     107 -> 112       -0.26086
     107 -> 113        0.35775
     107 -> 114       -0.29738
     107 -> 115        0.19799
     109 -> 113        0.15209
     109 -> 114       -0.18551

 Excited State  22:      Singlet-A      6.1715 eV  200.90 nm  f=0.0342  <S**2>=0.000
     104 -> 111       -0.22444
     108 -> 114        0.10538
     108 -> 118       -0.13083
     110 -> 120        0.41652
     110 -> 121       -0.25370
     110 -> 122       -0.20233
     110 -> 125        0.24686

 Excited State  23:      Singlet-A      6.1926 eV  200.21 nm  f=0.0170  <S**2>=0.000
     102 -> 111        0.13372
     103 -> 111        0.38534
     104 -> 111        0.14298
     110 -> 120        0.25219
     110 -> 122        0.29203
     110 -> 123       -0.23660

 Excited State  24:      Singlet-A      6.2236 eV  199.22 nm  f=0.0279  <S**2>=0.000
     103 -> 111       -0.18976
     103 -> 112        0.12394
     104 -> 111        0.47003
     110 -> 120        0.21875
     110 -> 122       -0.26263

 Excited State  25:      Singlet-A      6.2435 eV  198.58 nm  f=0.0106  <S**2>=0.000
     103 -> 111        0.41134
     104 -> 111        0.15376
     104 -> 112        0.10642
     110 -> 120       -0.17027
     110 -> 122       -0.33008
     110 -> 123        0.18336

 Excited State  26:      Singlet-A      6.2557 eV  198.19 nm  f=0.0007  <S**2>=0.000
      95 -> 111       -0.11883
      96 -> 111        0.18929
      97 -> 111        0.17828
      99 -> 111        0.19023
     101 -> 111        0.18731
     104 -> 111       -0.11823
     110 -> 120        0.12568
     110 -> 121        0.31824
     110 -> 122       -0.20080
     110 -> 123       -0.24769
     110 -> 125       -0.16471

 Excited State  27:      Singlet-A      6.2708 eV  197.72 nm  f=0.0102  <S**2>=0.000
      95 -> 111       -0.12250
      96 -> 111        0.22268
      97 -> 111        0.17706
      99 -> 111        0.22512
     101 -> 111        0.23192
     103 -> 111       -0.14406
     104 -> 111        0.21467
     110 -> 121       -0.23019
     110 -> 122        0.23896
     110 -> 124        0.12630

 Excited State  28:      Singlet-A      6.3441 eV  195.43 nm  f=0.0422  <S**2>=0.000
     102 -> 111        0.45854
     110 -> 120       -0.14372
     110 -> 121       -0.15975
     110 -> 122       -0.11815
     110 -> 123       -0.14789
     110 -> 124        0.29282

 Excited State  29:      Singlet-A      6.3592 eV  194.97 nm  f=0.0355  <S**2>=0.000
     102 -> 111        0.37318
     109 -> 114        0.13616
     110 -> 120        0.11325
     110 -> 121        0.14075
     110 -> 123        0.23703
     110 -> 124       -0.33969

 Excited State  30:      Singlet-A      6.4075 eV  193.50 nm  f=0.1097  <S**2>=0.000
     106 -> 116        0.11952
     107 -> 112        0.24623
     107 -> 115       -0.17340
     107 -> 116       -0.12638
     109 -> 113        0.20082
     109 -> 114       -0.18143
     109 -> 116        0.14263
     110 -> 120        0.11718
     110 -> 121        0.12155
     110 -> 123        0.25652
     110 -> 124        0.24769
     110 -> 126       -0.11459

 Excited State  31:      Singlet-A      6.4199 eV  193.13 nm  f=0.3286  <S**2>=0.000
     102 -> 111        0.16679
     104 -> 111       -0.12280
     106 -> 114        0.14188
     108 -> 112        0.39085
     108 -> 115        0.21002
     108 -> 117        0.18796
     109 -> 113       -0.30007
     109 -> 114       -0.22674

 Excited State  32:      Singlet-A      6.4487 eV  192.26 nm  f=0.2747  <S**2>=0.000
     102 -> 111        0.12046
     106 -> 113        0.10591
     107 -> 112        0.27592
     107 -> 115       -0.19602
     109 -> 113        0.16984
     109 -> 114       -0.20748
     110 -> 121       -0.23158
     110 -> 123       -0.20082
     110 -> 124       -0.26503
     110 -> 128        0.12414

 Excited State  33:      Singlet-A      6.4595 eV  191.94 nm  f=0.0299  <S**2>=0.000
      91 -> 111       -0.12059
      93 -> 111       -0.11023
      95 -> 111        0.31083
      96 -> 111        0.13484
      98 -> 111       -0.22964
      99 -> 111       -0.11306
     101 -> 111        0.21736
     106 -> 118       -0.12215
     108 -> 118       -0.11342
     109 -> 116       -0.12367
     109 -> 118        0.17545
     110 -> 121        0.10430
     110 -> 125        0.17455

 Excited State  34:      Singlet-A      6.4848 eV  191.19 nm  f=0.0161  <S**2>=0.000
      95 -> 111        0.13440
     105 -> 116       -0.11224
     106 -> 116        0.27139
     107 -> 116       -0.15443
     109 -> 115       -0.12726
     109 -> 116        0.36926
     109 -> 118        0.11891
     110 -> 116        0.13892
     110 -> 121       -0.13723
     110 -> 123       -0.10885
     110 -> 124       -0.10671
     110 -> 125       -0.13337
     110 -> 128        0.12496

 Excited State  35:      Singlet-A      6.5128 eV  190.37 nm  f=0.0166  <S**2>=0.000
      95 -> 111       -0.14778
      96 -> 111       -0.10190
      98 -> 111        0.12935
     101 -> 111       -0.11611
     106 -> 116        0.10466
     106 -> 118       -0.15897
     108 -> 118       -0.11366
     109 -> 116        0.15942
     109 -> 118        0.22055
     110 -> 121        0.14976
     110 -> 123       -0.12630
     110 -> 125        0.34280
     110 -> 127       -0.16267
     110 -> 128       -0.10138

 Excited State  36:      Singlet-A      6.5517 eV  189.24 nm  f=0.0095  <S**2>=0.000
     106 -> 118       -0.24527
     108 -> 118       -0.15650
     109 -> 116       -0.11406
     109 -> 118        0.39359
     110 -> 118       -0.14159
     110 -> 123        0.17704
     110 -> 125       -0.26182
     110 -> 127        0.11069
     110 -> 128        0.11256

 Excited State  37:      Singlet-A      6.5917 eV  188.09 nm  f=0.0513  <S**2>=0.000
     103 -> 111        0.12729
     106 -> 112       -0.33098
     106 -> 117       -0.14329
     107 -> 113        0.13643
     107 -> 114       -0.12024
     108 -> 114        0.10148
     109 -> 115        0.41807
     109 -> 116        0.13318
     110 -> 117       -0.11220

 Excited State  38:      Singlet-A      6.7360 eV  184.06 nm  f=0.1081  <S**2>=0.000
     104 -> 111        0.18213
     106 -> 115       -0.18779
     107 -> 112       -0.13161
     107 -> 115       -0.12778
     107 -> 117        0.11728
     108 -> 112       -0.19829
     108 -> 114        0.10526
     108 -> 115        0.11753
     108 -> 117        0.24633
     108 -> 119        0.11890
     109 -> 114       -0.17266
     109 -> 117        0.33638
     110 -> 115       -0.11050

 Excited State  39:      Singlet-A      6.7763 eV  182.97 nm  f=0.0307  <S**2>=0.000
     103 -> 111       -0.10870
     106 -> 112       -0.11683
     107 -> 112       -0.21199
     107 -> 115       -0.19039
     107 -> 117        0.16558
     107 -> 119       -0.10302
     108 -> 112        0.18666
     108 -> 117       -0.21094
     109 -> 113        0.11766
     110 -> 126        0.24064
     110 -> 127        0.30674

 Excited State  40:      Singlet-A      6.8147 eV  181.94 nm  f=0.0172  <S**2>=0.000
     107 -> 112        0.22800
     107 -> 115        0.18889
     107 -> 117       -0.16822
     108 -> 112       -0.14818
     108 -> 117        0.16668
     110 -> 121        0.10643
     110 -> 126        0.25419
     110 -> 127        0.34015

 Excited State  41:      Singlet-A      6.8255 eV  181.65 nm  f=0.2267  <S**2>=0.000
      92 -> 111       -0.14628
      93 -> 111       -0.11784
     106 -> 112       -0.13915
     106 -> 115       -0.18539
     107 -> 112        0.20187
     107 -> 115        0.12607
     107 -> 117       -0.13604
     108 -> 112        0.19153
     108 -> 117       -0.20321
     109 -> 117        0.31139

 Excited State  42:      Singlet-A      6.8410 eV  181.24 nm  f=0.0682  <S**2>=0.000
      86 -> 111       -0.11290
      87 -> 111       -0.16035
      88 -> 111       -0.15670
      89 -> 111       -0.12663
      92 -> 111        0.28959
      93 -> 111        0.22853
      94 -> 111        0.13623
      95 -> 111        0.15812
      96 -> 111       -0.11195
     100 -> 111        0.14715
     101 -> 111        0.12516
     107 -> 112        0.13584
     109 -> 117        0.16879

 Excited State  43:      Singlet-A      6.9123 eV  179.37 nm  f=0.0293  <S**2>=0.000
      87 -> 111       -0.10457
      90 -> 111        0.13677
      94 -> 111        0.13447
      95 -> 111       -0.10134
      97 -> 111        0.12300
     100 -> 111        0.19016
     101 -> 111       -0.10738
     106 -> 112        0.34935
     106 -> 117       -0.16444
     109 -> 115        0.22943
     109 -> 117        0.15196
     110 -> 126        0.11910

 Excited State  44:      Singlet-A      6.9333 eV  178.82 nm  f=0.0088  <S**2>=0.000
      87 -> 111        0.12760
      90 -> 111       -0.16846
      91 -> 111        0.10731
      94 -> 111       -0.16975
      95 -> 111        0.10798
     100 -> 111       -0.30232
     100 -> 112        0.12025
     101 -> 111        0.15133
     106 -> 112        0.31131
     106 -> 117       -0.14071
     109 -> 115        0.20322

 Excited State  45:      Singlet-A      6.9563 eV  178.23 nm  f=0.0113  <S**2>=0.000
      87 -> 111        0.13642
      90 -> 111       -0.11145
     109 -> 126       -0.13423
     110 -> 126        0.32432
     110 -> 127       -0.23810
     110 -> 129        0.19474
     110 -> 130        0.10195
     110 -> 131        0.18050
     110 -> 132        0.22071

 Excited State  46:      Singlet-A      6.9990 eV  177.15 nm  f=0.0011  <S**2>=0.000
      86 -> 111        0.16228
      87 -> 111        0.20175
      90 -> 111       -0.16588
      97 -> 111       -0.16244
      98 -> 111        0.15129
      99 -> 111        0.12374
     100 -> 111        0.46027
     100 -> 112       -0.16616
     110 -> 126       -0.10668

 Excited State  47:      Singlet-A      7.1000 eV  174.63 nm  f=0.0008  <S**2>=0.000
      85 -> 111        0.11841
      95 -> 111       -0.20769
      96 -> 111       -0.19592
      96 -> 112       -0.10833
      97 -> 111        0.10221
      99 -> 111       -0.36167
     101 -> 111        0.36300
     101 -> 112        0.14665

 Excited State  48:      Singlet-A      7.1382 eV  173.69 nm  f=0.0057  <S**2>=0.000
      87 -> 111        0.12115
      89 -> 111        0.12651
      91 -> 111        0.12645
      92 -> 111        0.12556
      95 -> 111        0.11891
      97 -> 111        0.41566
      99 -> 111       -0.18857
     101 -> 111       -0.15379
     110 -> 129       -0.12371
     110 -> 130       -0.17105
     110 -> 134       -0.10958

 Excited State  49:      Singlet-A      7.1516 eV  173.36 nm  f=0.0010  <S**2>=0.000
      97 -> 111        0.19426
     110 -> 127        0.12680
     110 -> 128       -0.16034
     110 -> 129        0.23273
     110 -> 130        0.36924
     110 -> 131       -0.16016
     110 -> 132        0.12635
     110 -> 134        0.21738
     110 -> 137        0.10094

 Excited State  50:      Singlet-A      7.1891 eV  172.46 nm  f=0.0022  <S**2>=0.000
     109 -> 127        0.10086
     110 -> 120       -0.16733
     110 -> 124        0.12414
     110 -> 125        0.17412
     110 -> 126       -0.16877
     110 -> 127        0.14174
     110 -> 128        0.38474
     110 -> 129        0.28432
     110 -> 135        0.12630

 Excited State  51:      Singlet-A      7.2813 eV  170.28 nm  f=0.0687  <S**2>=0.000
     105 -> 113        0.23297
     105 -> 114       -0.17943
     106 -> 113       -0.26089
     106 -> 114        0.27575
     109 -> 113        0.25693
     109 -> 114       -0.19241
     110 -> 128       -0.11025
     110 -> 131        0.16320

 Excited State  52:      Singlet-A      7.3190 eV  169.40 nm  f=0.0800  <S**2>=0.000
      96 -> 111        0.11738
     105 -> 114        0.23529
     106 -> 113        0.30600
     109 -> 114        0.23650
     110 -> 126       -0.13411
     110 -> 128       -0.12062
     110 -> 129        0.18497
     110 -> 131        0.25495
     110 -> 132       -0.10802

 Excited State  53:      Singlet-A      7.3272 eV  169.21 nm  f=0.0388  <S**2>=0.000
      86 -> 111       -0.11132
      90 -> 111       -0.13586
      91 -> 111        0.12487
      95 -> 111       -0.17932
      95 -> 112        0.11246
      96 -> 111        0.31597
      97 -> 111       -0.16332
      98 -> 111       -0.15568
      99 -> 111       -0.12743
     105 -> 113       -0.16186
     105 -> 114       -0.11144
     106 -> 113       -0.12749
     106 -> 114       -0.22714
     109 -> 113       -0.16022
     109 -> 114       -0.11289

 Excited State  54:      Singlet-A      7.3300 eV  169.15 nm  f=0.0259  <S**2>=0.000
      95 -> 111       -0.10926
      96 -> 111        0.16479
      98 -> 111       -0.10597
     105 -> 113        0.17266
     105 -> 114        0.11715
     106 -> 113        0.12684
     106 -> 114        0.24208
     109 -> 113        0.18156
     109 -> 114        0.11018
     110 -> 126        0.12325
     110 -> 128        0.14948
     110 -> 129       -0.16529
     110 -> 131       -0.23756

 Excited State  55:      Singlet-A      7.3840 eV  167.91 nm  f=0.0008  <S**2>=0.000
      85 -> 111        0.10356
      94 -> 111        0.18210
      95 -> 111        0.10945
      96 -> 111        0.24456
      97 -> 111       -0.16534
      98 -> 111        0.44431
      98 -> 112        0.11428
      99 -> 111       -0.26173

 Excited State  56:      Singlet-A      7.4345 eV  166.77 nm  f=0.0262  <S**2>=0.000
     103 -> 116        0.10456
     105 -> 112        0.13714
     105 -> 115       -0.18343
     105 -> 116        0.18910
     106 -> 115        0.12898
     106 -> 116       -0.20823
     106 -> 117       -0.14427
     109 -> 115       -0.17650
     109 -> 116        0.16492
     109 -> 119        0.29887
     110 -> 131        0.10764
     110 -> 132        0.17417

 Excited State  57:      Singlet-A      7.4644 eV  166.10 nm  f=0.0068  <S**2>=0.000
     105 -> 112       -0.11147
     105 -> 116        0.17765
     105 -> 118       -0.14652
     106 -> 116       -0.15936
     106 -> 117        0.12043
     106 -> 118       -0.12084
     109 -> 116        0.15272
     109 -> 118       -0.10647
     109 -> 119       -0.20130
     110 -> 128        0.14743
     110 -> 129       -0.15964
     110 -> 130        0.10075
     110 -> 131        0.20611
     110 -> 137        0.16328

 Excited State  58:      Singlet-A      7.4698 eV  165.98 nm  f=0.0066  <S**2>=0.000
     103 -> 116        0.10337
     104 -> 118        0.11804
     105 -> 112       -0.20616
     105 -> 116        0.16787
     105 -> 118        0.12797
     106 -> 116       -0.14845
     106 -> 118        0.12124
     109 -> 116        0.12278
     109 -> 117       -0.10173
     109 -> 119       -0.10898
     110 -> 130       -0.12624
     110 -> 131       -0.10445
     110 -> 132        0.21353

 The electronic state is 1-A.
 Alpha  occ. eigenvalues --  -89.95563 -89.95369 -14.83700 -14.83268 -10.65858
 Alpha  occ. eigenvalues --  -10.65414 -10.61209 -10.61074 -10.59784 -10.59681
 Alpha  occ. eigenvalues --  -10.58964 -10.58758 -10.57533 -10.57455 -10.56775
 Alpha  occ. eigenvalues --  -10.56410 -10.56325 -10.56164 -10.56040 -10.55610
 Alpha  occ. eigenvalues --  -10.55580 -10.55506 -10.55369 -10.55245 -10.55146
 Alpha  occ. eigenvalues --  -10.54253 -10.54247 -10.53347 -10.53188  -8.31351
 Alpha  occ. eigenvalues --   -8.31155  -6.23279  -6.23091  -6.23084  -6.22896
 Alpha  occ. eigenvalues --   -6.22861  -6.22661  -1.12911  -1.12747  -0.98134
 Alpha  occ. eigenvalues --   -0.98019  -0.95116  -0.94652  -0.93249  -0.91391
 Alpha  occ. eigenvalues --   -0.88987  -0.87277  -0.86933  -0.86050  -0.84452
 Alpha  occ. eigenvalues --   -0.83974  -0.82599  -0.79263  -0.75325  -0.74578
 Alpha  occ. eigenvalues --   -0.74415  -0.71893  -0.71017  -0.69621  -0.68889
 Alpha  occ. eigenvalues --   -0.66864  -0.65163  -0.64430  -0.63861  -0.60279
 Alpha  occ. eigenvalues --   -0.60143  -0.59787  -0.57902  -0.57460  -0.55825
 Alpha  occ. eigenvalues --   -0.54998  -0.54946  -0.54330  -0.53460  -0.53392
 Alpha  occ. eigenvalues --   -0.52810  -0.52344  -0.51419  -0.50580  -0.50207
 Alpha  occ. eigenvalues --   -0.49459  -0.48442  -0.47263  -0.47153  -0.46718
 Alpha  occ. eigenvalues --   -0.46257  -0.45632  -0.45516  -0.44689  -0.44404
 Alpha  occ. eigenvalues --   -0.44067  -0.43437  -0.43242  -0.43126  -0.42491
 Alpha  occ. eigenvalues --   -0.42072  -0.41906  -0.41752  -0.41561  -0.41140
 Alpha  occ. eigenvalues --   -0.40883  -0.38571  -0.37957  -0.37829  -0.34800
 Alpha  occ. eigenvalues --   -0.31881  -0.30638  -0.30527  -0.28048  -0.21966
 Alpha virt. eigenvalues --   -0.08878  -0.01773   0.00262   0.00290   0.01570
 Alpha virt. eigenvalues --    0.02234   0.02477   0.02760   0.05779   0.07269
 Alpha virt. eigenvalues --    0.07397   0.08290   0.08584   0.08797   0.08849

 Mulliken charges:
               1
     1  C   -0.251578
     2  C   -0.122670
     3  C   -0.261871
     4  C   -0.084649
     5  C    0.158488
     6  S    0.066957
     7  C   -0.008299
     8  C    0.157220
     9  N   -0.035456
    10  C   -0.204681
    11  C   -0.184218
    12  C   -0.172987
    13  C   -0.246178
    14  C   -0.288113
    15  C   -0.419124
    16  C   -0.262275
    17  C   -0.083932
    18  C   -0.271379
    19  C    0.155199
    20  S    0.094985
    21  C   -0.014648
    22  C    0.166077
    23  N   -0.032013
    24  C   -0.201009
    25  C   -0.179917
    26  C   -0.174527
    27  C   -0.249014
    28  C   -0.328660
    29  C   -0.424930
    30  H    0.211786
    31  H    0.174549
    32  H    0.170397
    33  H    0.179605
    34  H    0.195142
    35  H    0.189739
    36  H    0.190538
    37  H    0.213518
    38  H    0.195284
    39  H    0.195772
    40  H    0.172145
    41  H    0.169157
    42  H    0.167133
    43  H    0.173442
    44  H    0.183981
    45  H    0.192570
    46  H    0.195573
    47  H    0.190235
    48  H    0.191109
    49  H    0.217680
    50  H    0.207479
    51  H    0.203421
    52  H    0.170632
    53  H    0.178170
    54  H    0.174144
 Sum of Mulliken charges =   1.00000

 Dipole moment (field-independent basis, Debye):
    X=             -0.7798    Y=              0.5214    Z=              0.6251  Tot=              1.1273
 Quadrupole moment (field-independent basis, Debye-Ang):
   XX=             39.3115   YY=           -146.2782   ZZ=           -194.4157
   XY=             26.7757   XZ=              4.7691   YZ=              5.1775

 Normal termination of Gaussian 16 at Sun Nov  5 23:51:34 2023.
