 Gaussian 16, Revision C.02,
 Gaussian 16:  ES64L-G16RevC.02  7-Dec-2021

 ------------------------------------------------------------
 # td=(nstates=150) M062X/def2TZVP scrf(smd, solvent=ethanol)
 ------------------------------------------------------------

 ---
 A-1
 ---
 Symbolic Z-matrix:
 Charge =  1 Multiplicity = 1

                         Standard orientation:
 ---------------------------------------------------------------------
 Center     Atomic      Atomic             Coordinates (Angstroms)
 Number     Number       Type             X           Y           Z
 ---------------------------------------------------------------------
      1          6           0       -1.259214    0.216698   -0.039367
      2          6           0        0.000003    0.828935   -0.000122
      3          6           0        1.259209    0.216684    0.039249
      4          7           0        2.433464    0.904848    0.145998
      5         16           0       -1.557561   -1.512152    0.053882
      6          6           0       -3.297665   -1.258824   -0.027283
      7          6           0       -3.589904    0.108866   -0.118299
      8          7           0       -2.433474    0.904863   -0.146106
      9         16           0        1.557549   -1.512171   -0.053923
     10          6           0        3.297657   -1.258850    0.027304
     11          6           0        3.589900    0.108842    0.118251
     12          6           0       -4.301571   -2.224422   -0.003624
     13          6           0       -5.624645   -1.792125   -0.066975
     14          6           0       -5.925643   -0.425687   -0.149009
     15          6           0       -4.920394    0.538274   -0.174272
     16          6           0        4.301563   -2.224450    0.003718
     17          6           0        5.624635   -1.792149    0.067066
     18          6           0        5.925635   -0.425707    0.149021
     19          6           0        4.920384    0.538258    0.174213
     20          6           0       -2.510348    2.373529   -0.257226
     21          6           0       -2.566433    3.073786    1.101522
     22          6           0        2.510339    2.373497    0.257299
     23          6           0        2.566508    3.073929   -1.101357
     24          1           0        0.000014    1.909040   -0.000214
     25          1           0       -4.060576   -3.280313    0.063971
     26          1           0       -6.427238   -2.522132   -0.049094
     27          1           0       -6.962056   -0.106514   -0.191342
     28          1           0       -5.176748    1.590213   -0.228130
     29          1           0        4.060566   -3.280345   -0.063815
     30          1           0        6.427230   -2.522156    0.049231
     31          1           0        6.962048   -0.106532    0.191339
     32          1           0        5.176733    1.590201    0.228019
     33          1           0       -1.657488    2.708489   -0.852128
     34          1           0       -3.398115    2.597174   -0.852215
     35          1           0       -3.441185    2.752064    1.674572
     36          1           0       -1.673838    2.863356    1.699082
     37          1           0       -2.634230    4.156364    0.954302
     38          1           0        1.657436    2.708379    0.852183
     39          1           0        3.398074    2.597059    0.852370
     40          1           0        3.441334    2.752344   -1.674368
     41          1           0        1.673988    2.863510   -1.699033
     42          1           0        2.634214    4.156493   -0.953990
 ---------------------------------------------------------------------

 SCF Done:  E(RM062X) =  -1641.18867058     A.U. after   13 cycles

 Excitation energies and oscillator strengths:

 Excited State   1:      Singlet-A      3.2955 eV  376.22 nm  f=1.2323  <S**2>=0.000
      89 -> 90         0.69708
 This state for optimization and/or second-order correction.
 Total Energy, E(TD-HF/TD-DFT) =  -1641.06756330
 Copying the excited state density for this state as the 1-particle RhoCI density.

 Excited State   2:      Singlet-A      4.3416 eV  285.57 nm  f=0.0008  <S**2>=0.000
      87 -> 92        -0.14214
      89 -> 92         0.66036
      89 -> 93        -0.12867

 Excited State   3:      Singlet-A      4.6545 eV  266.38 nm  f=0.0229  <S**2>=0.000
      86 -> 90         0.12337
      86 -> 93        -0.13850
      87 -> 94        -0.11939
      88 -> 90         0.53081
      89 -> 91         0.37857

 Excited State   4:      Singlet-A      4.8465 eV  255.82 nm  f=0.0083  <S**2>=0.000
      86 -> 91        -0.18439
      87 -> 90         0.51904
      88 -> 94        -0.14781
      89 -> 93         0.37678

 Excited State   5:      Singlet-A      5.0158 eV  247.19 nm  f=0.0445  <S**2>=0.000
      86 -> 90         0.24191
      86 -> 93        -0.11868
      87 -> 91         0.12007
      88 -> 90        -0.39073
      88 -> 95        -0.12379
      89 -> 91         0.39962
      89 -> 94         0.21480

 Excited State   6:      Singlet-A      5.1399 eV  241.22 nm  f=0.0739  <S**2>=0.000
      86 -> 91        -0.15398
      87 -> 90        -0.42345
      87 -> 95        -0.11868
      88 -> 91         0.11757
      89 -> 93         0.43270
      89 -> 95         0.17002

 Excited State   7:      Singlet-A      5.1877 eV  239.00 nm  f=0.1091  <S**2>=0.000
      86 -> 90         0.53233
      88 -> 90         0.12486
      89 -> 91        -0.33445
      89 -> 94         0.19766

 Excited State   8:      Singlet-A      5.2838 eV  234.65 nm  f=0.0066  <S**2>=0.000
      84 -> 92        -0.15797
      86 -> 92         0.20460
      87 -> 96         0.18217
      88 -> 92         0.45587
      89 -> 96        -0.35872

 Excited State   9:      Singlet-A      5.4803 eV  226.24 nm  f=0.0799  <S**2>=0.000
      86 -> 90        -0.31611
      86 -> 95        -0.13925
      88 -> 90         0.15224
      89 -> 94         0.56391

 Excited State  10:      Singlet-A      5.6109 eV  220.97 nm  f=0.1531  <S**2>=0.000
      86 -> 94        -0.15857
      87 -> 90         0.14019
      87 -> 93         0.19263
      88 -> 91         0.22123
      89 -> 93        -0.23717
      89 -> 95         0.52953

 Excited State  11:      Singlet-A      5.8349 eV  212.49 nm  f=0.0164  <S**2>=0.000
      83 -> 92         0.17275
      87 -> 92         0.56841
      87 -> 93        -0.10430
      88 -> 96         0.26298
      89 -> 92         0.17117

 Excited State  12:      Singlet-A      5.8582 eV  211.64 nm  f=0.0004  <S**2>=0.000
      84 -> 92        -0.10787
      86 -> 92        -0.17725
      88 -> 92         0.39787
      89 -> 96         0.51954

 Excited State  13:      Singlet-A      5.9689 eV  207.72 nm  f=0.6571  <S**2>=0.000
      85 -> 90        -0.26484
      87 -> 93        -0.25192
      87 -> 95         0.14459
      88 -> 91        -0.33727
      88 -> 94         0.18108
      89 -> 93         0.17317
      89 -> 95         0.37950

 Excited State  14:      Singlet-A      6.1136 eV  202.80 nm  f=0.3201  <S**2>=0.000
      86 -> 90        -0.10695
      87 -> 91         0.42600
      87 -> 94        -0.11302
      88 -> 93         0.38509
      88 -> 95        -0.12644
      89 -> 91        -0.15422
      89 -> 94        -0.24110
      89 -> 98         0.12106

 Excited State  15:      Singlet-A      6.2429 eV  198.60 nm  f=0.0417  <S**2>=0.000
      85 -> 90         0.37142
      86 -> 91        -0.12996
      87 -> 93        -0.24821
      87 -> 95        -0.21078
      88 -> 91        -0.35842
      88 -> 94        -0.24418
      89 -> 93        -0.13113

 Excited State  16:      Singlet-A      6.2897 eV  197.12 nm  f=0.0086  <S**2>=0.000
      84 -> 90        -0.20105
      85 -> 91         0.13862
      86 -> 93         0.17394
      87 -> 91         0.12449
      87 -> 94         0.36273
      88 -> 93         0.20351
      88 -> 95         0.35430
      89 -> 91         0.15261
      89 -> 98         0.20472

 Excited State  17:      Singlet-A      6.3743 eV  194.51 nm  f=0.0539  <S**2>=0.000
      83 -> 90         0.10071
      85 -> 90         0.34821
      86 -> 91         0.11238
      87 -> 95         0.15934
      88 -> 94         0.19407
      89 -> 97         0.40688
      89 -> 98        -0.20353
      89 ->100        -0.11720

 Excited State  18:      Singlet-A      6.3745 eV  194.50 nm  f=0.0205  <S**2>=0.000
      85 -> 90         0.13341
      86 -> 92         0.21222
      87 -> 91        -0.11389
      88 -> 93        -0.12383
      89 -> 97         0.15109
      89 -> 98         0.54001
      89 -> 99        -0.10038

 Excited State  19:      Singlet-A      6.4094 eV  193.44 nm  f=0.0000  <S**2>=0.000
      85 -> 96         0.12554
      86 -> 92         0.54901
      86 -> 93        -0.10075
      89 -> 96         0.21862
      89 -> 98        -0.27065

 Excited State  20:      Singlet-A      6.4555 eV  192.06 nm  f=0.0890  <S**2>=0.000
      85 -> 90        -0.32604
      86 -> 91        -0.11509
      87 -> 95        -0.17880
      88 -> 94        -0.23246
      89 -> 97         0.44846
      89 ->100        -0.15800
      89 ->101        -0.10750

 Excited State  21:      Singlet-A      6.6643 eV  186.04 nm  f=0.0334  <S**2>=0.000
      84 -> 90         0.64372
      86 -> 93         0.13031
      87 -> 94         0.11107
      88 -> 90         0.10618

 Excited State  22:      Singlet-A      6.7052 eV  184.91 nm  f=0.0151  <S**2>=0.000
      83 -> 90        -0.20979
      89 -> 97         0.18484
      89 ->100         0.57168
      89 ->101        -0.18285

 Excited State  23:      Singlet-A      6.7372 eV  184.03 nm  f=0.0042  <S**2>=0.000
      83 -> 90         0.60342
      86 -> 91        -0.15869
      87 -> 90        -0.10948
      89 ->100         0.22777

 Excited State  24:      Singlet-A      6.8198 eV  181.80 nm  f=0.7551  <S**2>=0.000
      83 -> 90         0.15283
      85 -> 93         0.19315
      86 -> 91         0.51088
      87 -> 93        -0.10629
      87 -> 95        -0.18703
      88 -> 94        -0.28815
      89 -> 93         0.13015

 Excited State  25:      Singlet-A      6.9481 eV  178.44 nm  f=0.0008  <S**2>=0.000
      77 -> 90        -0.10324
      82 -> 90         0.65285

 Excited State  26:      Singlet-A      6.9718 eV  177.84 nm  f=0.0473  <S**2>=0.000
      85 -> 91         0.24512
      86 -> 92         0.10142
      86 -> 93         0.51004
      87 -> 94        -0.23726
      88 -> 95        -0.24976

 Excited State  27:      Singlet-A      7.1675 eV  172.98 nm  f=0.0008  <S**2>=0.000
      83 -> 92        -0.13308
      85 -> 92         0.48027
      86 -> 96         0.28015
      89 ->101        -0.28440

 Excited State  28:      Singlet-A      7.2230 eV  171.65 nm  f=0.0154  <S**2>=0.000
      84 -> 91        -0.11161
      85 -> 92         0.11751
      85 -> 95         0.22263
      86 -> 94         0.52821
      86 -> 96         0.14055
      88 -> 91         0.14641
      88 -> 96         0.11446
      89 -> 95         0.12969
      89 ->101         0.11659

 Excited State  29:      Singlet-A      7.2342 eV  171.39 nm  f=0.0006  <S**2>=0.000
      71 -> 90        -0.13175
      76 -> 90         0.34538
      78 -> 90        -0.11559
      86 ->100        -0.12396
      89 -> 99         0.43180
      89 ->102         0.21192
      89 ->105         0.17281

 Excited State  30:      Singlet-A      7.2495 eV  171.02 nm  f=0.0120  <S**2>=0.000
      84 -> 96        -0.10945
      85 -> 92         0.14467
      86 -> 94        -0.24810
      86 -> 96         0.22418
      87 -> 92        -0.16860
      88 -> 96         0.25849
      89 -> 97         0.15367
      89 ->101         0.33955
      89 ->104        -0.19686

 Excited State  31:      Singlet-A      7.2508 eV  170.99 nm  f=0.0016  <S**2>=0.000
      69 -> 90        -0.10627
      71 -> 90        -0.17424
      76 -> 90         0.44766
      78 -> 90        -0.16129
      89 -> 99        -0.32157
      89 ->102        -0.17718
      89 ->105        -0.12678

 Excited State  32:      Singlet-A      7.3462 eV  168.77 nm  f=0.0026  <S**2>=0.000
      83 -> 92        -0.29334
      84 -> 96         0.21356
      87 -> 92         0.27435
      88 -> 96        -0.25469
      89 ->100         0.10599
      89 ->101         0.34150
      89 ->104        -0.14803

 Excited State  33:      Singlet-A      7.3587 eV  168.49 nm  f=0.1708  <S**2>=0.000
      83 -> 91         0.11253
      84 -> 93        -0.11078
      85 -> 94         0.27671
      86 -> 95         0.52751
      88 -> 93         0.14715
      89 -> 94         0.10921

 Excited State  34:      Singlet-A      7.3963 eV  167.63 nm  f=0.0084  <S**2>=0.000
      84 -> 92        -0.20516
      84 -> 93         0.10980
      87 -> 91         0.45323
      88 -> 92        -0.19051
      88 -> 93        -0.39205

 Excited State  35:      Singlet-A      7.4123 eV  167.27 nm  f=0.0108  <S**2>=0.000
      76 -> 90         0.10871
      82 -> 91        -0.10258
      83 -> 96        -0.20457
      84 -> 92         0.46611
      86 -> 95         0.10085
      87 -> 91         0.19102
      88 -> 92         0.17122
      88 -> 93        -0.22502

 Excited State  36:      Singlet-A      7.4317 eV  166.83 nm  f=0.0507  <S**2>=0.000
      84 -> 91         0.10402
      86 -> 94         0.15140
      87 -> 93         0.53267
      88 -> 91        -0.37423

 Excited State  37:      Singlet-A      7.4892 eV  165.55 nm  f=0.0025  <S**2>=0.000
      79 -> 90         0.48509
      79 -> 93        -0.13600
      79 -> 95        -0.11920
      81 -> 90         0.27689
      82 -> 91         0.17901
      82 -> 94         0.22249

 Excited State  38:      Singlet-A      7.6537 eV  161.99 nm  f=0.0052  <S**2>=0.000
      81 -> 90        -0.11233
      84 -> 92         0.17858
      86 -> 92         0.10095
      86 ->101        -0.10969
      87 -> 94        -0.12928
      87 -> 96         0.36642
      88 -> 95         0.11419
      88 -> 97         0.13879
      88 ->100        -0.12724
      88 ->104         0.11383
      89 -> 96         0.10072
      89 -> 99         0.18813
      89 ->102        -0.32073

 Excited State  39:      Singlet-A      7.6582 eV  161.90 nm  f=0.0111  <S**2>=0.000
      72 -> 90         0.14617
      74 -> 90         0.11671
      77 -> 90        -0.29072
      79 -> 91        -0.24353
      79 -> 94        -0.13798
      80 -> 90         0.32742
      82 -> 93         0.24614
      82 -> 95         0.10122
      83 -> 92        -0.12019

 Excited State  40:      Singlet-A      7.6966 eV  161.09 nm  f=0.0061  <S**2>=0.000
      83 -> 92        -0.10365
      84 -> 94         0.10707
      87 -> 95         0.39497
      88 -> 94        -0.35048
      88 -> 98         0.33864

 Excited State  41:      Singlet-A      7.7031 eV  160.95 nm  f=0.0002  <S**2>=0.000
      84 -> 92         0.12893
      86 ->101         0.13258
      87 -> 94        -0.10820
      87 -> 96         0.34664
      89 -> 99        -0.19371
      89 ->102         0.43749
      89 ->113        -0.11435

 Excited State  42:      Singlet-A      7.7469 eV  160.04 nm  f=0.0063  <S**2>=0.000
      79 -> 91         0.16728
      80 -> 90         0.10509
      82 -> 93        -0.17288
      83 -> 92        -0.33810
      86 -> 96        -0.12832
      87 -> 95        -0.11579
      88 -> 94         0.10053
      88 -> 96         0.40940
      88 -> 98        -0.10029

 Excited State  43:      Singlet-A      7.7569 eV  159.84 nm  f=0.0004  <S**2>=0.000
      78 -> 90        -0.13525
      79 -> 90        -0.11604
      79 -> 93         0.22298
      81 -> 90         0.46552
      82 -> 91        -0.28419
      87 -> 96         0.14278

 Excited State  44:      Singlet-A      7.7619 eV  159.73 nm  f=0.0793  <S**2>=0.000
      81 -> 90         0.17262
      82 -> 91         0.12511
      87 -> 94         0.38116
      87 -> 96         0.19087
      87 -> 98        -0.19618
      88 -> 95        -0.34933
      89 ->103         0.11741

 Excited State  45:      Singlet-A      7.8062 eV  158.83 nm  f=0.0101  <S**2>=0.000
      74 -> 90         0.11022
      77 -> 90         0.16348
      79 -> 91         0.15990
      80 -> 90         0.48452
      82 -> 92        -0.14000
      82 -> 93        -0.12825
      83 -> 92         0.16124
      83 -> 93        -0.13327
      84 -> 91         0.13518
      88 -> 96        -0.12444

 Excited State  46:      Singlet-A      7.8229 eV  158.49 nm  f=0.0056  <S**2>=0.000
      79 -> 90        -0.23209
      79 -> 93        -0.16764
      81 -> 90         0.29764
      82 -> 91         0.21609
      82 -> 94        -0.12713
      87 -> 94        -0.20310
      87 -> 96        -0.11569
      88 -> 95         0.18984
      89 -> 99        -0.12601
      89 ->103         0.13191
      89 ->105         0.15950
      89 ->113         0.10202

 Excited State  47:      Singlet-A      7.8355 eV  158.23 nm  f=0.1844  <S**2>=0.000
      77 -> 90        -0.11687
      80 -> 90        -0.16392
      82 -> 92        -0.25739
      83 -> 93        -0.24891
      84 -> 91         0.32620
      89 ->101         0.12853
      89 ->104         0.26658
      89 ->106        -0.13017

 Excited State  48:      Singlet-A      7.8511 eV  157.92 nm  f=0.0490  <S**2>=0.000
      82 -> 92         0.17742
      83 -> 92         0.11861
      83 -> 93         0.13694
      84 -> 91        -0.20435
      86 -> 99        -0.13756
      89 ->100         0.10953
      89 ->101         0.20072
      89 ->104         0.43454
      89 ->106        -0.20692

 Excited State  49:      Singlet-A      7.8690 eV  157.56 nm  f=0.0046  <S**2>=0.000
      75 -> 90         0.15935
      77 -> 91        -0.10124
      79 -> 90         0.12687
      79 -> 93         0.14388
      82 -> 91        -0.15697
      86 ->100        -0.10599
      89 -> 99        -0.16563
      89 ->103         0.36781
      89 ->105         0.28402
      89 ->113         0.17604

 Excited State  50:      Singlet-A      7.9218 eV  156.51 nm  f=0.0007  <S**2>=0.000
      75 -> 91        -0.12745
      77 -> 90         0.41358
      79 -> 91        -0.23813
      79 -> 94         0.16682
      82 -> 93         0.27039
      82 -> 95        -0.14310
      83 -> 92        -0.13413

 Excited State  51:      Singlet-A      7.9228 eV  156.49 nm  f=0.1124  <S**2>=0.000
      78 -> 90         0.25238
      83 -> 91         0.32304
      84 -> 93        -0.30126
      86 -> 95        -0.16728
      89 ->103         0.30356
      89 ->105        -0.15298

 Excited State  52:      Singlet-A      7.9665 eV  155.63 nm  f=0.1137  <S**2>=0.000
      75 -> 90        -0.13201
      83 -> 91        -0.27041
      84 -> 93         0.26849
      85 -> 91         0.11584
      86 -> 95         0.12009
      89 ->103         0.36039
      89 ->105        -0.27646

 Excited State  53:      Singlet-A      7.9778 eV  155.41 nm  f=0.0002  <S**2>=0.000
      74 -> 91        -0.13472
      74 -> 94        -0.12131
      75 -> 90         0.44777
      75 -> 93        -0.18154
      77 -> 91        -0.13372
      77 -> 94        -0.17112
      79 -> 90        -0.15600
      82 -> 91         0.17517
      89 ->105        -0.15628

 Excited State  54:      Singlet-A      8.0330 eV  154.34 nm  f=0.1119  <S**2>=0.000
      76 -> 90         0.16318
      78 -> 90         0.51030
      79 -> 90        -0.10238
      83 -> 91        -0.10279
      84 -> 93         0.10151
      85 -> 91         0.10754
      88 -> 97        -0.20300
      89 ->103        -0.10867

 Excited State  55:      Singlet-A      8.0716 eV  153.61 nm  f=0.0109  <S**2>=0.000
      72 -> 90         0.13248
      73 -> 90        -0.10878
      74 -> 90         0.31058
      74 -> 93        -0.11068
      75 -> 91        -0.20965
      75 -> 94        -0.14886
      77 -> 93        -0.16606
      80 -> 90        -0.23817
      82 -> 95         0.11471
      85 -> 92         0.13321
      87 -> 97        -0.12574
      87 ->100        -0.12604
      88 -> 99        -0.13164

 Excited State  56:      Singlet-A      8.0753 eV  153.54 nm  f=0.0163  <S**2>=0.000
      78 -> 90         0.19783
      87 -> 96        -0.11319
      87 -> 99         0.16960
      87 ->102         0.15560
      88 -> 97         0.39597
      88 ->100         0.15767
      88 ->101        -0.18941
      88 ->104         0.11443
      89 -> 99        -0.10148
      89 ->103        -0.16836
      89 ->105         0.16620
      89 ->113         0.10679

 Excited State  57:      Singlet-A      8.0754 eV  153.53 nm  f=0.0265  <S**2>=0.000
      85 -> 92         0.14281
      86 -> 96        -0.25208
      86 ->102        -0.12718
      87 -> 97         0.28373
      87 ->100         0.11534
      87 ->101        -0.11201
      87 ->104         0.11290
      88 -> 99         0.21236
      88 ->102         0.13675
      89 ->104        -0.14787
      89 ->106        -0.26092

 Excited State  58:      Singlet-A      8.0880 eV  153.29 nm  f=0.1198  <S**2>=0.000
      82 -> 92        -0.22924
      83 -> 93         0.14813
      83 -> 95         0.12229
      84 -> 91        -0.18408
      84 -> 94        -0.15319
      84 -> 98        -0.10761
      86 -> 98         0.18798
      87 -> 95        -0.20559
      88 -> 94         0.14829
      88 -> 98         0.36549

 Excited State  59:      Singlet-A      8.1568 eV  152.00 nm  f=0.0266  <S**2>=0.000
      74 -> 90         0.12068
      75 -> 91        -0.14211
      77 -> 93        -0.11873
      85 -> 92        -0.28027
      86 -> 96         0.39581
      87 ->100         0.13749
      88 -> 99         0.12983

 Excited State  60:      Singlet-A      8.2074 eV  151.06 nm  f=0.0231  <S**2>=0.000
      78 -> 93        -0.11700
      83 -> 91         0.14960
      83 -> 94        -0.15654
      84 -> 95         0.15331
      85 -> 91         0.50074
      86 -> 93        -0.28210
      87 -> 98         0.12737

 Excited State  61:      Singlet-A      8.2143 eV  150.94 nm  f=0.0490  <S**2>=0.000
      74 -> 90         0.11405
      82 -> 92        -0.13932
      85 -> 93         0.12232
      86 ->102         0.12129
      87 -> 95         0.12744
      87 -> 97         0.19894
      87 ->100         0.14372
      88 -> 98        -0.18800
      88 -> 99         0.20316
      89 ->104         0.15357
      89 ->106         0.35347

 Excited State  62:      Singlet-A      8.2295 eV  150.66 nm  f=0.0602  <S**2>=0.000
      82 -> 92         0.22178
      83 -> 95        -0.21271
      84 -> 91         0.11039
      84 -> 94         0.24604
      85 -> 93         0.19598
      87 -> 95        -0.24321
      88 -> 94         0.12181
      88 -> 98         0.31524
      89 ->106         0.16567

 Excited State  63:      Singlet-A      8.2528 eV  150.23 nm  f=0.0517  <S**2>=0.000
      73 -> 90         0.17691
      78 -> 91        -0.10901
      82 -> 92        -0.11583
      84 -> 94         0.11667
      85 -> 93         0.38944
      86 -> 91        -0.20859
      86 -> 98         0.12502
      88 -> 98        -0.13334
      89 ->106        -0.26458

 Excited State  64:      Singlet-A      8.2773 eV  149.79 nm  f=0.0100  <S**2>=0.000
      83 -> 94        -0.18844
      84 -> 95         0.18850
      85 -> 91        -0.21140
      87 -> 98         0.47587
      88 -> 95        -0.16009
      88 ->100         0.14736

 Excited State  65:      Singlet-A      8.2892 eV  149.57 nm  f=0.0007  <S**2>=0.000
      74 -> 91         0.11094
      75 -> 90         0.10105
      75 -> 93         0.16224
      77 -> 91         0.18005
      83 -> 94         0.10092
      87 -> 96         0.15117
      87 -> 98        -0.19433
      87 -> 99         0.14139
      87 ->105         0.12762
      88 -> 97        -0.10146
      88 ->100         0.32338
      89 ->105         0.18123
      89 ->113        -0.10607

 Excited State  66:      Singlet-A      8.3425 eV  148.62 nm  f=0.0015  <S**2>=0.000
      68 -> 90        -0.11669
      74 -> 91         0.18240
      75 -> 90         0.21825
      75 -> 93         0.26531

 The electronic state is 1-A.
 Alpha  occ. eigenvalues --  -89.96375 -89.96374 -14.83925 -14.83925 -10.66785
 Alpha  occ. eigenvalues --  -10.66785 -10.61492 -10.61492 -10.60095 -10.60094
 Alpha  occ. eigenvalues --  -10.59128 -10.59128 -10.56862 -10.56687 -10.56686
 Alpha  occ. eigenvalues --  -10.56349 -10.56349 -10.55796 -10.55796 -10.55516
 Alpha  occ. eigenvalues --  -10.55516 -10.53423 -10.53422  -8.32159  -8.32159
 Alpha  occ. eigenvalues --   -6.24089  -6.24089  -6.23891  -6.23891  -6.23669
 Alpha  occ. eigenvalues --   -6.23668  -1.13613  -1.13233  -0.98547  -0.98380
 Alpha  occ. eigenvalues --   -0.95962  -0.93611  -0.90591  -0.87666  -0.87240
 Alpha  occ. eigenvalues --   -0.86054  -0.84668  -0.83792  -0.81145  -0.74934
 Alpha  occ. eigenvalues --   -0.74871  -0.74540  -0.71627  -0.69730  -0.69699
 Alpha  occ. eigenvalues --   -0.67338  -0.64627  -0.61097  -0.60623  -0.60468
 Alpha  occ. eigenvalues --   -0.58084  -0.57292  -0.55969  -0.55462  -0.54747
 Alpha  occ. eigenvalues --   -0.53505  -0.53197  -0.52886  -0.52597  -0.50653
 Alpha  occ. eigenvalues --   -0.50379  -0.49772  -0.48726  -0.47501  -0.47307
 Alpha  occ. eigenvalues --   -0.46308  -0.45901  -0.45348  -0.44536  -0.43764
 Alpha  occ. eigenvalues --   -0.43350  -0.43181  -0.42584  -0.42213  -0.42118
 Alpha  occ. eigenvalues --   -0.41782  -0.40541  -0.38717  -0.38094  -0.36166
 Alpha  occ. eigenvalues --   -0.31869  -0.31231  -0.30628  -0.25696
 Alpha virt. eigenvalues --   -0.05844  -0.00341  -0.00288   0.00379   0.01219
 Alpha virt. eigenvalues --    0.02178   0.04745   0.05838   0.05870   0.08224
 Alpha virt. eigenvalues --    0.08338   0.08675   0.09806   0.10044   0.10126

 Mulliken charges:
               1
     1  C    0.093749
     2  C   -0.225384
     3  C    0.093740
     4  N   -0.029295
     5  S    0.071896
     6  C   -0.001009
     7  C    0.149898
     8  N   -0.029301
     9  S    0.071896
    10  C   -0.001008
    11  C    0.149899
    12  C   -0.209033
    13  C   -0.178207
    14  C   -0.170304
    15  C   -0.237411
    16  C   -0.209028
    17  C   -0.178206
    18  C   -0.170305
    19  C   -0.237415
    20  C   -0.284136
    21  C   -0.424399
    22  C   -0.284136
    23  C   -0.424411
    24  H    0.252496
    25  H    0.196957
    26  H    0.191065
    27  H    0.191888
    28  H    0.214820
    29  H    0.196957
    30  H    0.191065
    31  H    0.191888
    32  H    0.214824
    33  H    0.194995
    34  H    0.199948
    35  H    0.169568
    36  H    0.171193
    37  H    0.174270
    38  H    0.194995
    39  H    0.199949
    40  H    0.169566
    41  H    0.171196
    42  H    0.174269
 Sum of Mulliken charges =   1.00000

 Dipole moment (field-independent basis, Debye):
    X=              0.0001    Y=              5.2262    Z=              0.0001  Tot=              5.2262
 Quadrupole moment (field-independent basis, Debye-Ang):
   XX=            -67.2452   YY=           -108.1610   ZZ=           -154.8428
   XY=             -0.0003   XZ=              2.2455   YZ=             -0.0005

 Normal termination of Gaussian 16 at Sat Nov  4 16:20:29 2023.
