 Gaussian 16, Revision C.02,
 Gaussian 16:  ES64L-G16RevC.02  7-Dec-2021

 -----------------------------------------------------------------
 # td=(nstates=150) b3lyp/6-311+g(2d,p) scrf(smd, solvent=ethanol)
 -----------------------------------------------------------------

 ---
 A-4
 ---
 Symbolic Z-matrix:
 Charge =  1 Multiplicity = 1

                         Standard orientation:
 ---------------------------------------------------------------------
 Center     Atomic      Atomic             Coordinates (Angstroms)
 Number     Number       Type             X           Y           Z
 ---------------------------------------------------------------------
      1          6           0       -3.663712   -1.051948   -0.111557
      2          6           0       -2.389638   -0.479979   -0.083458
      3          6           0       -1.194967   -1.195004   -0.064041
      4          6           0        0.058349   -0.578322   -0.035613
      5          6           0       -4.855344   -0.323764   -0.124892
      6         16           0       -4.926662    1.436711   -0.060618
      7          6           0       -6.688233    1.402029   -0.083292
      8          6           0       -7.154955    0.079357   -0.139452
      9          7           0       -6.111858   -0.857268   -0.183590
     10          6           0       -7.565153    2.482703   -0.048916
     11          6           0       -8.934956    2.220220   -0.065794
     12          6           0       -9.407072    0.902760   -0.113224
     13          6           0       -8.529361   -0.179533   -0.148820
     14          6           0       -6.366284   -2.306872   -0.248314
     15          6           0       -6.467137   -2.955883    1.133259
     16          6           0        1.282162   -1.246091   -0.016052
     17          6           0        2.511127   -0.582889    0.011938
     18          6           0        3.741215   -1.244345   -0.008435
     19          6           0        5.052439   -0.749020    0.008808
     20         16           0        6.362590   -1.866987   -0.365292
     21          6           0        7.562983   -0.600806   -0.165520
     22          6           0        6.941017    0.612357    0.169846
     23          7           0        5.544832    0.495298    0.283261
     24          6           0        8.946272   -0.695535   -0.302110
     25          6           0        9.708364    0.454142   -0.100703
     26          6           0        9.092982    1.668657    0.228770
     27          6           0        7.709445    1.764545    0.366500
     28          6           0        4.732809    1.623027    0.770139
     29          6           0        4.282282    2.569892   -0.344236
     30          1           0       -3.731831   -2.134826   -0.113428
     31          1           0       -2.310249    0.607987   -0.076294
     32          1           0       -1.237617   -2.283434   -0.072611
     33          1           0        0.079156    0.512977   -0.027655
     34          1           0       -7.192939    3.501353   -0.008437
     35          1           0       -9.638205    3.046285   -0.038434
     36          1           0      -10.476042    0.714855   -0.119701
     37          1           0       -8.914544   -1.192671   -0.174894
     38          1           0       -7.289207   -2.442036   -0.816617
     39          1           0       -5.570728   -2.757498   -0.845647
     40          1           0       -6.666359   -4.026758    1.023381
     41          1           0       -5.536643   -2.835556    1.696522
     42          1           0       -7.280055   -2.514652    1.717995
     43          1           0        1.279871   -2.335280   -0.024232
     44          1           0        2.472390    0.502280    0.013643
     45          1           0        3.691082   -2.326769   -0.105404
     46          1           0        9.416627   -1.639291   -0.558710
     47          1           0       10.787594    0.405440   -0.203502
     48          1           0        9.700309    2.555856    0.377290
     49          1           0        7.251286    2.716142    0.611187
     50          1           0        3.887111    1.202637    1.316886
     51          1           0        5.342782    2.154926    1.505154
     52          1           0        3.668719    2.054906   -1.089954
     53          1           0        3.692500    3.387191    0.083941
     54          1           0        5.141488    3.005946   -0.862588
 ---------------------------------------------------------------------

 SCF Done:  E(RB3LYP) =  -1873.82454964     A.U. after   14 cycles

 Excitation energies and oscillator strengths:

 Excited State   1:      Singlet-A      2.0070 eV  617.75 nm  f=2.8077  <S**2>=0.000
     110 ->111         0.70889
     110 <-111        -0.10750
 This state for optimization and/or second-order correction.
 Total Energy, E(TD-HF/TD-DFT) =  -1873.75079244
 Copying the excited state density for this state as the 1-particle RhoCI density.

 Excited State   2:      Singlet-A      3.1583 eV  392.57 nm  f=0.0069  <S**2>=0.000
     109 ->111         0.62131
     110 ->112         0.33319

 Excited State   3:      Singlet-A      3.5740 eV  346.90 nm  f=0.0480  <S**2>=0.000
     108 ->111         0.60943
     110 ->112         0.24548
     110 ->114         0.19860

 Excited State   4:      Singlet-A      3.6116 eV  343.30 nm  f=0.0092  <S**2>=0.000
     107 ->111         0.63383
     110 ->113        -0.26118
     110 ->114         0.13513

 Excited State   5:      Singlet-A      3.6253 eV  342.00 nm  f=0.0827  <S**2>=0.000
     108 ->111        -0.20636
     109 ->111        -0.30739
     110 ->112         0.55598
     110 ->113        -0.10768
     110 ->114        -0.15870

 Excited State   6:      Singlet-A      3.7608 eV  329.67 nm  f=0.0472  <S**2>=0.000
     108 ->111        -0.27194
     110 ->113         0.32265
     110 ->114         0.54714

 Excited State   7:      Singlet-A      3.7669 eV  329.14 nm  f=0.0198  <S**2>=0.000
     107 ->111         0.28543
     110 ->113         0.52309
     110 ->114        -0.32177
     110 ->115         0.16806

 Excited State   8:      Singlet-A      3.8321 eV  323.54 nm  f=0.0003  <S**2>=0.000
     109 ->115         0.10609
     110 ->113        -0.14982
     110 ->115         0.63476
     110 ->116         0.20511

 Excited State   9:      Singlet-A      3.9428 eV  314.46 nm  f=0.0003  <S**2>=0.000
     109 ->117        -0.11460
     110 ->117         0.68760

 Excited State  10:      Singlet-A      3.9890 eV  310.81 nm  f=0.0076  <S**2>=0.000
     106 ->111         0.60771
     110 ->116         0.31893

 Excited State  11:      Singlet-A      4.1210 eV  300.86 nm  f=0.0142  <S**2>=0.000
     106 ->111        -0.31032
     109 ->112         0.11169
     110 ->115        -0.19461
     110 ->116         0.57410

 Excited State  12:      Singlet-A      4.2690 eV  290.43 nm  f=0.0025  <S**2>=0.000
     105 ->111         0.12925
     110 ->118         0.67846

 Excited State  13:      Singlet-A      4.5254 eV  273.98 nm  f=0.0003  <S**2>=0.000
     110 ->119         0.65910
     110 ->120         0.17650
     110 ->122        -0.11796

 Excited State  14:      Singlet-A      4.6038 eV  269.31 nm  f=0.0013  <S**2>=0.000
     109 ->112        -0.10687
     110 ->119        -0.18364
     110 ->120         0.64797
     110 ->121         0.10542

 Excited State  15:      Singlet-A      4.6591 eV  266.11 nm  f=0.0031  <S**2>=0.000
     105 ->111         0.36645
     109 ->112         0.43478
     110 ->121         0.36912

 Excited State  16:      Singlet-A      4.6784 eV  265.01 nm  f=0.0021  <S**2>=0.000
     105 ->111         0.56079
     109 ->112        -0.26173
     110 ->118        -0.10807
     110 ->121        -0.26282

 Excited State  17:      Singlet-A      4.7390 eV  261.63 nm  f=0.0125  <S**2>=0.000
     109 ->112        -0.37026
     110 ->120        -0.13506
     110 ->121         0.50014
     110 ->123         0.18033
     110 ->124         0.13280

 Excited State  18:      Singlet-A      4.9743 eV  249.25 nm  f=0.0004  <S**2>=0.000
     110 ->119         0.11320
     110 ->122         0.60476
     110 ->124         0.27229
     110 ->129         0.13188

 Excited State  19:      Singlet-A      5.0121 eV  247.37 nm  f=0.0006  <S**2>=0.000
     106 ->114         0.12420
     108 ->112        -0.29262
     108 ->114         0.11124
     108 ->116        -0.11051
     108 ->118         0.12402
     109 ->113         0.26679
     109 ->114         0.43541
     110 ->123         0.23920

 Excited State  20:      Singlet-A      5.0272 eV  246.62 nm  f=0.0035  <S**2>=0.000
     107 ->112        -0.12216
     109 ->113        -0.19839
     110 ->122        -0.26632
     110 ->124         0.55112

 Excited State  21:      Singlet-A      5.0321 eV  246.39 nm  f=0.0016  <S**2>=0.000
     107 ->112        -0.18365
     109 ->113        -0.34998
     110 ->123         0.49243
     110 ->124        -0.10653

 Excited State  22:      Singlet-A      5.0630 eV  244.88 nm  f=0.0085  <S**2>=0.000
     107 ->112        -0.16123
     109 ->112        -0.13660
     109 ->113        -0.29243
     109 ->114         0.37269
     110 ->122         0.10700
     110 ->123        -0.30752
     110 ->124        -0.19180

 Excited State  23:      Singlet-A      5.1572 eV  240.41 nm  f=0.0043  <S**2>=0.000
     110 ->123         0.12065
     110 ->125         0.64671
     110 ->126         0.11269

 Excited State  24:      Singlet-A      5.1770 eV  239.49 nm  f=0.0078  <S**2>=0.000
     110 ->125        -0.10645
     110 ->126         0.60953
     110 ->128        -0.16655
     110 ->129        -0.17354
     110 ->130        -0.11202

 Excited State  25:      Singlet-A      5.2260 eV  237.25 nm  f=0.0005  <S**2>=0.000
     106 ->115        -0.14788
     107 ->115        -0.20726
     109 ->115         0.57186
     109 ->116         0.15170
     110 ->115        -0.11305
     110 ->125        -0.10252
     110 ->128        -0.13601

 Excited State  26:      Singlet-A      5.2655 eV  235.47 nm  f=0.0009  <S**2>=0.000
     103 ->111        -0.14867
     104 ->111        -0.15378
     107 ->112         0.25420
     109 ->116        -0.12873
     110 ->127         0.55665
     110 ->130        -0.11059

 Excited State  27:      Singlet-A      5.2725 eV  235.15 nm  f=0.0425  <S**2>=0.000
     103 ->111         0.21164
     104 ->111         0.42280
     108 ->112         0.23347
     108 ->114         0.14345
     109 ->116         0.16100
     110 ->127         0.17939
     110 ->128        -0.19355
     110 ->130        -0.12022

 Excited State  28:      Singlet-A      5.2821 eV  234.73 nm  f=0.0375  <S**2>=0.000
     103 ->111        -0.13881
     104 ->111        -0.13945
     108 ->112         0.55410
     109 ->113         0.20217
     109 ->114         0.23058

 Excited State  29:      Singlet-A      5.2912 eV  234.32 nm  f=0.0106  <S**2>=0.000
     103 ->111         0.32437
     107 ->113         0.12762
     108 ->117        -0.11930
     109 ->116         0.20186
     109 ->117         0.29749
     110 ->126         0.14445
     110 ->127         0.10668
     110 ->128         0.36852

 Excited State  30:      Singlet-A      5.2994 eV  233.96 nm  f=0.0149  <S**2>=0.000
     102 ->111         0.13004
     103 ->111         0.30929
     104 ->111        -0.32540
     107 ->112         0.34287
     109 ->113        -0.13673
     109 ->114         0.11252
     109 ->117        -0.16609
     110 ->127        -0.12275
     110 ->128        -0.17903

 Excited State  31:      Singlet-A      5.3105 eV  233.47 nm  f=0.0246  <S**2>=0.000
     103 ->111        -0.10495
     104 ->111         0.11186
     107 ->112         0.28930
     108 ->117        -0.17154
     109 ->117         0.41996
     110 ->126        -0.12168
     110 ->127        -0.22156
     110 ->128        -0.14815
     110 ->129        -0.14477
     110 ->132         0.10560

 Excited State  32:      Singlet-A      5.3165 eV  233.21 nm  f=0.0290  <S**2>=0.000
     104 ->111         0.25293
     107 ->112         0.32373
     107 ->113        -0.11238
     109 ->115         0.10672
     109 ->116        -0.11201
     109 ->117        -0.20547
     109 ->118        -0.10642
     110 ->126         0.11096
     110 ->127        -0.13400
     110 ->128         0.32970
     110 ->129         0.10237
     110 ->132        -0.13170

 Excited State  33:      Singlet-A      5.3501 eV  231.74 nm  f=0.0035  <S**2>=0.000
     102 ->111        -0.10147
     109 ->117         0.16394
     110 ->126         0.15440
     110 ->127         0.12354
     110 ->128        -0.18338
     110 ->129         0.54315
     110 ->130         0.18924

 Excited State  34:      Singlet-A      5.4213 eV  228.70 nm  f=0.0009  <S**2>=0.000
     102 ->111        -0.13393
     103 ->111         0.11973
     109 ->116        -0.10037
     110 ->129        -0.26049
     110 ->130         0.51568
     110 ->131        -0.22990

 Excited State  35:      Singlet-A      5.4378 eV  228.01 nm  f=0.0337  <S**2>=0.000
     102 ->111         0.12471
     103 ->111         0.26007
     104 ->111         0.11622
     106 ->112        -0.16228
     107 ->113        -0.12148
     107 ->115         0.35550
     107 ->116         0.21170
     108 ->114        -0.16242
     109 ->113         0.16901
     109 ->115         0.19070
     109 ->116        -0.20036
     110 ->130        -0.12367

 Excited State  36:      Singlet-A      5.4453 eV  227.69 nm  f=0.0256  <S**2>=0.000
     102 ->111        -0.18149
     103 ->111        -0.18149
     106 ->112         0.13045
     107 ->113         0.10464
     107 ->115         0.48757
     107 ->116         0.12964
     108 ->114         0.13637
     109 ->113        -0.12596
     109 ->115         0.15161
     109 ->116         0.17257
     109 ->118        -0.10856

 Excited State  37:      Singlet-A      5.4768 eV  226.38 nm  f=0.0112  <S**2>=0.000
     102 ->111         0.42669
     103 ->111        -0.21507
     104 ->111         0.16977
     107 ->113         0.11791
     108 ->114        -0.11864
     109 ->116         0.15655
     109 ->118         0.27598
     110 ->130         0.17528

 Excited State  38:      Singlet-A      5.5295 eV  224.22 nm  f=0.0048  <S**2>=0.000
     108 ->117        -0.29796
     109 ->117        -0.17897
     110 ->128         0.13554
     110 ->131         0.25582
     110 ->132         0.47926
     110 ->133         0.13429

 Excited State  39:      Singlet-A      5.5330 eV  224.08 nm  f=0.0128  <S**2>=0.000
     108 ->114        -0.11799
     110 ->130         0.21908
     110 ->131         0.54736
     110 ->132        -0.22453

 Excited State  40:      Singlet-A      5.5453 eV  223.58 nm  f=0.0003  <S**2>=0.000
     108 ->117         0.56526
     109 ->117         0.17475
     110 ->132         0.33415

 Excited State  41:      Singlet-A      5.5652 eV  222.79 nm  f=0.1813  <S**2>=0.000
     102 ->111         0.33312
     106 ->113         0.11284
     107 ->113        -0.20727
     107 ->114         0.10917
     108 ->113         0.14120
     108 ->114         0.31407
     109 ->112        -0.12662
     109 ->114        -0.16538
     109 ->118        -0.15734
     110 ->130         0.12571
     110 ->131         0.17452

 Excited State  42:      Singlet-A      5.5908 eV  221.76 nm  f=0.0240  <S**2>=0.000
     106 ->112         0.47320
     107 ->113         0.11706
     109 ->115         0.14115
     109 ->116        -0.42204

 Excited State  43:      Singlet-A      5.6843 eV  218.12 nm  f=0.0032  <S**2>=0.000
     110 ->132        -0.11458
     110 ->133         0.61436
     110 ->134         0.15660
     110 ->135        -0.13713
     110 ->136        -0.13592

 Excited State  44:      Singlet-A      5.7197 eV  216.77 nm  f=0.0538  <S**2>=0.000
     106 ->112        -0.10657
     107 ->113         0.19090
     109 ->118        -0.11671
     110 ->133        -0.13985
     110 ->134         0.59656

 Excited State  45:      Singlet-A      5.7608 eV  215.22 nm  f=0.1120  <S**2>=0.000
     102 ->111        -0.15039
     105 ->112        -0.10074
     106 ->112         0.10331
     107 ->113        -0.24632
     107 ->114         0.11140
     108 ->113         0.11065
     108 ->114         0.19962
     109 ->118         0.47813
     110 ->134         0.16272

 Excited State  46:      Singlet-A      5.7742 eV  214.72 nm  f=0.0308  <S**2>=0.000
     106 ->112        -0.22944
     106 ->114        -0.16746
     107 ->113         0.26362
     107 ->114        -0.11607
     107 ->116         0.14708
     108 ->113         0.15234
     108 ->114         0.29750
     108 ->116         0.12447
     108 ->118        -0.19990
     109 ->116        -0.13564
     109 ->118         0.11392
     110 ->134        -0.20478

 Excited State  47:      Singlet-A      5.8090 eV  213.44 nm  f=0.0240  <S**2>=0.000
     105 ->114        -0.10805
     106 ->113         0.32297
     107 ->113         0.15108
     107 ->115        -0.11695
     107 ->116         0.30000
     107 ->118         0.14931
     108 ->113        -0.13495
     108 ->116        -0.14577
     108 ->118         0.18124
     109 ->114        -0.12515
     109 ->118         0.17926
     110 ->135        -0.21932

 Excited State  48:      Singlet-A      5.8122 eV  213.32 nm  f=0.0032  <S**2>=0.000
     106 ->113         0.10495
     107 ->116         0.12142
     110 ->133         0.16044
     110 ->135         0.54161
     110 ->136         0.26982

 Excited State  49:      Singlet-A      5.8619 eV  211.51 nm  f=0.0110  <S**2>=0.000
     106 ->112         0.17005
     106 ->114        -0.25615
     107 ->116         0.10159
     108 ->116         0.13467
     108 ->118        -0.15977
     109 ->118        -0.13349
     110 ->135        -0.18010
     110 ->136         0.32099
     110 ->137        -0.31281

 Excited State  50:      Singlet-A      5.8847 eV  210.69 nm  f=0.0301  <S**2>=0.000
     106 ->112        -0.23313
     106 ->114         0.26435
     107 ->116        -0.11519
     108 ->116        -0.10193
     108 ->118         0.11998
     109 ->116        -0.13344
     109 ->118         0.10984
     109 ->119         0.13451
     110 ->135        -0.12931
     110 ->136         0.39094
     110 ->137        -0.12502

 Excited State  51:      Singlet-A      5.8939 eV  210.36 nm  f=0.0008  <S**2>=0.000
     108 ->113         0.61535
     108 ->114        -0.31520

 Excited State  52:      Singlet-A      5.9116 eV  209.73 nm  f=0.0111  <S**2>=0.000
     109 ->119         0.18803
     110 ->135        -0.17185
     110 ->136         0.20709
     110 ->137         0.54484

 Excited State  53:      Singlet-A      5.9258 eV  209.23 nm  f=0.0002  <S**2>=0.000
     107 ->113         0.29113
     107 ->114         0.64001

 Excited State  54:      Singlet-A      5.9383 eV  208.79 nm  f=0.0003  <S**2>=0.000
      96 ->111         0.12598
      97 ->111        -0.10362
     100 ->111        -0.18460
     109 ->119         0.54912
     109 ->120         0.11627
     110 ->135         0.12082
     110 ->136        -0.18800
     110 ->137        -0.12686

 Excited State  55:      Singlet-A      5.9478 eV  208.45 nm  f=0.0002  <S**2>=0.000
      96 ->111        -0.30705
      97 ->111         0.23018
      98 ->111         0.19044
     100 ->111         0.46137
     101 ->111         0.11419
     109 ->119         0.25092

 Excited State  56:      Singlet-A      5.9972 eV  206.74 nm  f=0.0004  <S**2>=0.000
     106 ->119         0.11829
     109 ->119        -0.17173
     109 ->120         0.62809
     109 ->121         0.12906

 Excited State  57:      Singlet-A      6.0847 eV  203.76 nm  f=0.0023  <S**2>=0.000
     110 ->136        -0.11849
     110 ->138         0.54362
     110 ->139         0.14495
     110 ->140        -0.29831

 Excited State  58:      Singlet-A      6.0860 eV  203.72 nm  f=0.0008  <S**2>=0.000
      95 ->111         0.19449
      97 ->111        -0.27217
      99 ->111         0.11183
     100 ->111         0.22988
     101 ->111        -0.19766
     106 ->115        -0.10556
     109 ->121         0.28878
     110 ->138         0.11818
     110 ->139        -0.10962
     110 ->140         0.32403

 Excited State  59:      Singlet-A      6.0902 eV  203.58 nm  f=0.0050  <S**2>=0.000
      95 ->111        -0.21252
      97 ->111         0.31774
      99 ->111        -0.14369
     100 ->111        -0.21383
     109 ->121         0.18595
     110 ->138         0.30375
     110 ->140         0.30638

 Excited State  60:      Singlet-A      6.1048 eV  203.09 nm  f=0.0002  <S**2>=0.000
     105 ->115         0.13255
     106 ->115         0.34853
     106 ->116         0.11589
     109 ->120         0.10303
     109 ->121        -0.31832
     110 ->138         0.11305
     110 ->139         0.15177
     110 ->140         0.33628

 Excited State  61:      Singlet-A      6.1285 eV  202.31 nm  f=0.0063  <S**2>=0.000
     106 ->115         0.14680
     109 ->121         0.33387
     110 ->138        -0.15787
     110 ->139         0.49829

 Excited State  62:      Singlet-A      6.1417 eV  201.87 nm  f=0.0106  <S**2>=0.000
     101 ->111        -0.14938
     105 ->115         0.12765
     106 ->113         0.12014
     106 ->115         0.37482
     106 ->116         0.13560
     108 ->115        -0.17002
     109 ->115         0.10916
     109 ->121         0.19457
     110 ->139        -0.35925
     110 ->140        -0.15111

 Excited State  63:      Singlet-A      6.1745 eV  200.80 nm  f=0.0064  <S**2>=0.000
      95 ->111         0.11993
      96 ->111         0.12254
      97 ->111        -0.17073
      99 ->111        -0.20156
     101 ->111         0.46489
     108 ->115        -0.25596
     109 ->121         0.16108
     109 ->123         0.13298

 Excited State  64:      Singlet-A      6.1825 eV  200.54 nm  f=0.0190  <S**2>=0.000
      99 ->111        -0.27067
     101 ->111         0.11909
     106 ->113         0.12620
     106 ->115         0.10055
     108 ->115         0.56275

 Excited State  65:      Singlet-A      6.1940 eV  200.17 nm  f=0.1001  <S**2>=0.000
      99 ->111         0.37130
     101 ->111         0.14059
     106 ->113        -0.24036
     106 ->115         0.22248
     107 ->116         0.19286
     108 ->115         0.24682
     109 ->121         0.17061
     109 ->123         0.11422

 Excited State  66:      Singlet-A      6.2021 eV  199.91 nm  f=0.2334  <S**2>=0.000
      98 ->111         0.14391
      99 ->111         0.27835
     105 ->112         0.23831
     106 ->113         0.37413
     106 ->114         0.17616
     107 ->116        -0.15157
     108 ->116         0.26736

 Excited State  67:      Singlet-A      6.2258 eV  199.14 nm  f=0.0296  <S**2>=0.000
      99 ->111        -0.24523
     101 ->111        -0.22756
     106 ->114         0.24435
     107 ->116         0.11868
     108 ->116         0.48772
     108 ->118         0.12558

 Excited State  68:      Singlet-A      6.2402 eV  198.69 nm  f=0.0291  <S**2>=0.000
      98 ->111         0.23316
      99 ->111        -0.16105
     100 ->111        -0.10006
     106 ->114         0.17617
     107 ->116         0.10478
     108 ->116        -0.17851
     108 ->118        -0.28188
     108 ->119         0.20134
     108 ->120         0.36189

 Excited State  69:      Singlet-A      6.2526 eV  198.29 nm  f=0.0033  <S**2>=0.000
      96 ->111        -0.11909
      98 ->111         0.36364
     100 ->111        -0.19818
     105 ->112        -0.22452
     107 ->119         0.17529
     110 ->141         0.34432
     110 ->143        -0.14896

 Excited State  70:      Singlet-A      6.2551 eV  198.21 nm  f=0.0424  <S**2>=0.000
      97 ->111         0.10328
      98 ->111        -0.34794
      99 ->111         0.10848
     100 ->111         0.17387
     105 ->112        -0.12919
     107 ->119         0.11806
     108 ->119         0.14002
     108 ->120         0.24513
     110 ->141         0.35897

 Excited State  71:      Singlet-A      6.2664 eV  197.86 nm  f=0.0365  <S**2>=0.000
     105 ->112        -0.12405
     106 ->113        -0.11183
     107 ->119         0.45338
     107 ->120        -0.24329
     108 ->120         0.14098
     110 ->141        -0.28712

 Excited State  72:      Singlet-A      6.2793 eV  197.45 nm  f=0.0013  <S**2>=0.000
     105 ->117        -0.21321
     106 ->117         0.60101
     108 ->120        -0.12562
     109 ->117        -0.14878

 Excited State  73:      Singlet-A      6.2831 eV  197.33 nm  f=0.0263  <S**2>=0.000
     105 ->112        -0.24656
     106 ->114        -0.20788
     107 ->116        -0.15445
     107 ->119        -0.23377
     107 ->120         0.13671
     108 ->116         0.13590
     108 ->118         0.24797
     108 ->119         0.16328
     108 ->120         0.24599
     110 ->141        -0.14934

 Excited State  74:      Singlet-A      6.3129 eV  196.40 nm  f=0.0392  <S**2>=0.000
     105 ->112         0.21739
     108 ->118         0.16328
     109 ->122         0.12042
     110 ->140        -0.11923
     110 ->141         0.16475

 The electronic state is 1-A.
 Alpha  occ. eigenvalues --  -88.90202 -88.90019 -14.40032 -14.39725 -10.28372
 Alpha  occ. eigenvalues --  -10.27971 -10.24253 -10.24137 -10.22924 -10.22833
 Alpha  occ. eigenvalues --  -10.22197 -10.22058 -10.20195 -10.20187 -10.19544
 Alpha  occ. eigenvalues --  -10.19520 -10.19467 -10.19304 -10.19210 -10.18957
 Alpha  occ. eigenvalues --  -10.18804 -10.18711 -10.18606 -10.18579 -10.18500
 Alpha  occ. eigenvalues --  -10.17769 -10.17734 -10.16744 -10.16630  -7.98739
 Alpha  occ. eigenvalues --   -7.98556  -5.95074  -5.94898  -5.94711  -5.94534
 Alpha  occ. eigenvalues --   -5.94252  -5.94055  -1.02058  -1.01947  -0.88146
 Alpha  occ. eigenvalues --   -0.88044  -0.85353  -0.85120  -0.83555  -0.81793
 Alpha  occ. eigenvalues --   -0.79543  -0.77917  -0.77603  -0.76828  -0.75394
 Alpha  occ. eigenvalues --   -0.75011  -0.73759  -0.70739  -0.67084  -0.66206
 Alpha  occ. eigenvalues --   -0.66083  -0.64048  -0.63239  -0.61835  -0.61070
 Alpha  occ. eigenvalues --   -0.59264  -0.57552  -0.56872  -0.56398  -0.53149
 Alpha  occ. eigenvalues --   -0.53041  -0.52890  -0.51090  -0.50772  -0.49091
 Alpha  occ. eigenvalues --   -0.47909  -0.47671  -0.47549  -0.46842  -0.46704
 Alpha  occ. eigenvalues --   -0.46346  -0.46074  -0.45084  -0.44188  -0.43893
 Alpha  occ. eigenvalues --   -0.43619  -0.42526  -0.41064  -0.40960  -0.40479
 Alpha  occ. eigenvalues --   -0.40365  -0.39737  -0.39452  -0.38573  -0.38317
 Alpha  occ. eigenvalues --   -0.37833  -0.37767  -0.37528  -0.37392  -0.36828
 Alpha  occ. eigenvalues --   -0.36455  -0.36050  -0.35897  -0.35776  -0.35595
 Alpha  occ. eigenvalues --   -0.35380  -0.32612  -0.32225  -0.32071  -0.29380
 Alpha  occ. eigenvalues --   -0.26929  -0.25746  -0.25638  -0.23653  -0.18590
 Alpha virt. eigenvalues --   -0.10870  -0.04855  -0.03297  -0.03279  -0.02168
 Alpha virt. eigenvalues --   -0.02044  -0.01648  -0.01385   0.00072   0.00261
 Alpha virt. eigenvalues --    0.00703   0.01425   0.01586   0.01687   0.02002

 Mulliken charges:
               1
     1  C   -0.305790
     2  C    0.033632
     3  C   -0.460691
     4  C    0.274546
     5  C    0.586171
     6  S   -0.522237
     7  C    0.459505
     8  C    0.479812
     9  N    0.138466
    10  C   -0.391281
    11  C   -0.195591
    12  C   -0.232369
    13  C   -0.305148
    14  C   -0.225656
    15  C   -0.436425
    16  C   -0.501441
    17  C    0.274732
    18  C   -0.414815
    19  C    0.535951
    20  S   -0.474281
    21  C    0.547660
    22  C    0.444317
    23  N    0.157576
    24  C   -0.472517
    25  C   -0.278334
    26  C   -0.246750
    27  C   -0.324005
    28  C   -0.266211
    29  C   -0.465288
    30  H    0.140937
    31  H    0.132345
    32  H    0.115285
    33  H    0.127487
    34  H    0.153053
    35  H    0.133875
    36  H    0.133675
    37  H    0.146802
    38  H    0.153605
    39  H    0.154027
    40  H    0.149102
    41  H    0.147748
    42  H    0.148599
    43  H    0.114825
    44  H    0.142679
    45  H    0.143293
    46  H    0.153709
    47  H    0.135224
    48  H    0.133477
    49  H    0.152548
    50  H    0.158502
    51  H    0.158250
    52  H    0.150954
    53  H    0.155395
    54  H    0.151067
 Sum of Mulliken charges =   1.00000

 Dipole moment (field-independent basis, Debye):
    X=             -1.0229    Y=              0.1864    Z=              0.6274  Tot=              1.2144
 Quadrupole moment (field-independent basis, Debye-Ang):
   XX=             32.8013   YY=           -148.2349   ZZ=           -194.3707
   XY=             27.3018   XZ=              4.7760   YZ=              5.0578

 Normal termination of Gaussian 16 at Thu Nov  2 21:13:00 2023.
