 Gaussian 16, Revision C.02,
 Gaussian 16:  ES64L-G16RevC.02  7-Dec-2021

 -----------------------------------------------------------------
 # td=(nstates=150) b3lyp/6-311+g(2d,p) scrf(smd, solvent=ethanol)
 -----------------------------------------------------------------

 ---
 A-2
 ---
 Symbolic Z-matrix:
 Charge =  1 Multiplicity = 1

                         Standard orientation:
 ---------------------------------------------------------------------
 Center     Atomic      Atomic             Coordinates (Angstroms)
 Number     Number       Type             X           Y           Z
 ---------------------------------------------------------------------
      1          6           0        1.185932    1.124188    0.259065
      2          6           0       -0.064042    0.518894    0.184736
      3          6           0       -1.255062    1.232433    0.206071
      4          6           0       -2.576908    0.775971    0.134368
      5          6           0        2.392634    0.431471    0.171283
      6         16           0       -3.827667    1.970009   -0.187075
      7          6           0       -5.077877    0.744792   -0.134775
      8          6           0       -4.509195   -0.508640    0.113846
      9          7           0       -3.118372   -0.458179    0.279721
     10         16           0        2.505198   -1.300121   -0.125106
     11          6           0        4.260315   -1.225762   -0.102553
     12          6           0        4.688784    0.087010    0.119416
     13          7           0        3.627512    0.981655    0.287411
     14          6           0        5.159317   -2.267461   -0.279503
     15          6           0        6.517913   -1.973596   -0.237257
     16          6           0        6.953940   -0.663841   -0.025333
     17          6           0        6.051566    0.378213    0.153458
     18          6           0       -6.446804    0.904176   -0.304215
     19          6           0       -7.251229   -0.226106   -0.226408
     20          6           0       -6.689747   -1.482485    0.014868
     21          6           0       -5.320051   -1.640504    0.186250
     22          6           0        3.847144    2.415669    0.554580
     23          6           0        3.911762    3.249637   -0.717632
     24          6           0       -2.369369   -1.660308    0.692423
     25          6           0       -1.918854   -2.522991   -0.479110
     26          1           0        1.228852    2.199196    0.376562
     27          1           0       -0.096636   -0.556945    0.072235
     28          1           0       -1.165193    2.314370    0.224199
     29          1           0        4.813961   -3.279951   -0.448352
     30          1           0        7.240415   -2.768718   -0.373960
     31          1           0        8.015538   -0.449707   -0.002068
     32          1           0        6.406822    1.388085    0.306065
     33          1           0       -6.875736    1.880738   -0.491225
     34          1           0       -8.321880   -0.129159   -0.357431
     35          1           0       -7.330326   -2.354283    0.067360
     36          1           0       -4.901973   -2.621689    0.363736
     37          1           0        3.048585    2.754296    1.212168
     38          1           0        4.772710    2.494849    1.122044
     39          1           0        4.082538    4.295496   -0.452515
     40          1           0        4.728911    2.924468   -1.364544
     41          1           0        2.978199    3.187215   -1.279982
     42          1           0       -1.531667   -1.329317    1.302601
     43          1           0       -3.027666   -2.224702    1.351768
     44          1           0       -1.276100   -1.972556   -1.168349
     45          1           0       -1.359149   -3.379171   -0.096017
     46          1           0       -2.775672   -2.899604   -1.040801
 ---------------------------------------------------------------------

 SCF Done:  E(RB3LYP) =  -1718.96160391     A.U. after   14 cycles

 Excitation energies and oscillator strengths:

 Excited State   1:      Singlet-A      2.5687 eV  482.67 nm  f=1.6775  <S**2>=0.000
      96 -> 97         0.70665
 This state for optimization and/or second-order correction.
 Total Energy, E(TD-HF/TD-DFT) =  -1718.86720514
 Copying the excited state density for this state as the 1-particle RhoCI density.

 Excited State   2:      Singlet-A      3.8246 eV  324.17 nm  f=0.0296  <S**2>=0.000
      93 -> 97        -0.12094
      94 -> 97        -0.14735
      95 -> 97         0.62578
      96 -> 98         0.10250
      96 -> 99        -0.20957

 Excited State   3:      Singlet-A      3.8722 eV  320.19 nm  f=0.0124  <S**2>=0.000
      93 -> 97        -0.31390
      94 -> 97         0.54885
      96 -> 98         0.22062
      96 -> 99         0.16639

 Excited State   4:      Singlet-A      3.9869 eV  310.98 nm  f=0.0179  <S**2>=0.000
      93 -> 97         0.47362
      94 -> 97         0.27076
      95 -> 97         0.24818
      96 -> 98        -0.28666
      96 -> 99         0.19153
      96 ->100        -0.12552

 Excited State   5:      Singlet-A      4.0280 eV  307.81 nm  f=0.0026  <S**2>=0.000
      93 -> 97        -0.11975
      96 -> 98        -0.17752
      96 ->100         0.18537
      96 ->101         0.63560

 Excited State   6:      Singlet-A      4.0894 eV  303.19 nm  f=0.1062  <S**2>=0.000
      94 -> 97        -0.27119
      95 -> 97         0.12122
      96 -> 98         0.12489
      96 -> 99         0.61065

 Excited State   7:      Singlet-A      4.1145 eV  301.34 nm  f=0.0291  <S**2>=0.000
      93 -> 97         0.34534
      96 -> 98         0.53576
      96 ->101         0.24402

 Excited State   8:      Singlet-A      4.2044 eV  294.89 nm  f=0.0022  <S**2>=0.000
      96 ->100         0.15435
      96 ->102         0.14054
      96 ->103         0.65837

 Excited State   9:      Singlet-A      4.2988 eV  288.42 nm  f=0.0280  <S**2>=0.000
      93 -> 97         0.11202
      94 -> 97         0.13761
      95 -> 97         0.10026
      96 ->100         0.61237
      96 ->101        -0.14503
      96 ->103        -0.13589

 Excited State  10:      Singlet-A      4.4968 eV  275.71 nm  f=0.0367  <S**2>=0.000
      92 -> 97         0.14275
      96 ->102         0.65815
      96 ->103        -0.14931

 Excited State  11:      Singlet-A      4.7151 eV  262.95 nm  f=0.0010  <S**2>=0.000
      92 -> 97         0.21584
      96 ->104         0.65836

 Excited State  12:      Singlet-A      4.7619 eV  260.37 nm  f=0.0410  <S**2>=0.000
      92 -> 97         0.63260
      96 ->102        -0.11834
      96 ->104        -0.20640

 Excited State  13:      Singlet-A      4.9279 eV  251.60 nm  f=0.0174  <S**2>=0.000
      96 ->105         0.68481

 Excited State  14:      Singlet-A      5.0140 eV  247.28 nm  f=0.0004  <S**2>=0.000
      96 ->106         0.68167
      96 ->107        -0.10167

 Excited State  15:      Singlet-A      5.2414 eV  236.55 nm  f=0.0133  <S**2>=0.000
      96 ->106         0.10009
      96 ->107         0.67244

 Excited State  16:      Singlet-A      5.3658 eV  231.06 nm  f=0.0052  <S**2>=0.000
      96 ->108         0.63648
      96 ->109        -0.15088

 Excited State  17:      Singlet-A      5.3727 eV  230.77 nm  f=0.0682  <S**2>=0.000
      93 -> 98         0.32396
      94 -> 99        -0.17176
      94 ->100         0.19591
      94 ->102        -0.11948
      95 -> 98         0.11993
      95 ->100         0.23589
      96 ->108         0.14132
      96 ->109         0.17611
      96 ->110         0.33938

 Excited State  18:      Singlet-A      5.3941 eV  229.85 nm  f=0.0312  <S**2>=0.000
      91 -> 97        -0.10586
      93 -> 98        -0.26077
      93 -> 99        -0.19486
      94 ->100        -0.22815
      95 -> 98        -0.10534
      96 ->109         0.20720
      96 ->110         0.42231

 Excited State  19:      Singlet-A      5.4159 eV  228.93 nm  f=0.0322  <S**2>=0.000
      91 -> 97         0.13248
      93 -> 99         0.34934
      94 -> 98        -0.11692
      94 -> 99         0.24423
      94 ->100         0.16096
      95 ->100        -0.20598
      95 ->102        -0.20470
      95 ->103         0.10135
      96 ->109         0.10832
      96 ->110         0.28789

 Excited State  20:      Singlet-A      5.4344 eV  228.15 nm  f=0.0048  <S**2>=0.000
      93 -> 99        -0.10510
      93 ->101        -0.28150
      93 ->103        -0.10166
      94 ->101         0.50515
      94 ->102         0.10623
      94 ->103         0.17980
      95 ->101         0.17127
      96 ->108         0.12127

 Excited State  21:      Singlet-A      5.4557 eV  227.26 nm  f=0.0071  <S**2>=0.000
      96 ->108         0.14214
      96 ->109         0.58272
      96 ->110        -0.28865
      96 ->113        -0.11917

 Excited State  22:      Singlet-A      5.4845 eV  226.06 nm  f=0.0005  <S**2>=0.000
      93 ->103        -0.10896
      94 ->101         0.14914
      94 ->103        -0.16565
      95 ->101        -0.33316
      95 ->102         0.14517
      95 ->103         0.49898

 Excited State  23:      Singlet-A      5.5318 eV  224.13 nm  f=0.0230  <S**2>=0.000
      91 -> 97         0.54307
      94 -> 98        -0.12887
      94 ->100        -0.11212
      95 -> 99        -0.31018
      95 ->103        -0.10882

 Excited State  24:      Singlet-A      5.5477 eV  223.49 nm  f=0.0655  <S**2>=0.000
      90 -> 97         0.48899
      93 ->100        -0.22139
      94 -> 98         0.30114
      94 -> 99         0.13137
      95 -> 98         0.23494

 Excited State  25:      Singlet-A      5.6184 eV  220.68 nm  f=0.0168  <S**2>=0.000
      96 ->110         0.10888
      96 ->112         0.66644

 Excited State  26:      Singlet-A      5.6468 eV  219.57 nm  f=0.0093  <S**2>=0.000
      96 ->111         0.65225
      96 ->113         0.12120

 Excited State  27:      Singlet-A      5.6818 eV  218.21 nm  f=0.1038  <S**2>=0.000
      90 -> 97         0.24137
      91 -> 97         0.31393
      93 ->100         0.13556
      93 ->101         0.10753
      94 -> 99        -0.11923
      95 -> 98        -0.26009
      95 -> 99         0.40197
      96 ->111        -0.11960

 Excited State  28:      Singlet-A      5.7101 eV  217.13 nm  f=0.0142  <S**2>=0.000
      90 -> 97         0.11332
      91 -> 97        -0.15436
      93 ->100         0.10663
      93 ->101         0.47367
      94 -> 98        -0.15345
      94 ->101         0.18224
      95 -> 99        -0.16802
      95 ->100         0.10475
      95 ->101         0.25047
      96 ->113         0.10932

 Excited State  29:      Singlet-A      5.7363 eV  216.14 nm  f=0.0324  <S**2>=0.000
      90 -> 97         0.36603
      91 -> 97        -0.12785
      93 -> 98         0.14343
      93 ->100         0.14628
      93 ->101        -0.16158
      94 -> 98        -0.31175
      94 -> 99        -0.12878
      95 -> 98        -0.12234
      95 -> 99        -0.11389
      96 ->113        -0.29425

 Excited State  30:      Singlet-A      5.7392 eV  216.03 nm  f=0.0129  <S**2>=0.000
      90 -> 97         0.12884
      93 ->101        -0.17965
      94 -> 98        -0.15565
      95 ->101        -0.13961
      96 ->111        -0.11071
      96 ->113         0.56604

 Excited State  31:      Singlet-A      5.8345 eV  212.50 nm  f=0.0066  <S**2>=0.000
      93 -> 98        -0.16474
      94 -> 98        -0.30477
      95 -> 98         0.49247
      95 -> 99         0.30743

 Excited State  32:      Singlet-A      5.8515 eV  211.88 nm  f=0.0070  <S**2>=0.000
      89 -> 97         0.47258
      93 ->102        -0.14329
      93 ->103        -0.17490
      94 ->103        -0.12240
      95 -> 98        -0.11113
      96 ->115        -0.34647

 Excited State  33:      Singlet-A      5.8608 eV  211.55 nm  f=0.0005  <S**2>=0.000
      89 -> 97         0.24470
      92 ->101         0.13875
      93 ->103         0.43492
      94 ->103         0.29884
      95 ->103         0.25472
      96 ->115        -0.11666

 Excited State  34:      Singlet-A      5.8716 eV  211.16 nm  f=0.0003  <S**2>=0.000
      93 -> 98         0.18239
      93 -> 99        -0.36304
      94 -> 98        -0.20672
      94 -> 99         0.51405

 Excited State  35:      Singlet-A      5.8883 eV  210.56 nm  f=0.0048  <S**2>=0.000
      96 ->114         0.64833

 Excited State  36:      Singlet-A      5.9127 eV  209.69 nm  f=0.0091  <S**2>=0.000
      89 -> 97         0.31510
      95 ->100         0.11295
      96 ->114        -0.10367
      96 ->115         0.51777
      96 ->117        -0.17441

 Excited State  37:      Singlet-A      5.9328 eV  208.98 nm  f=0.1841  <S**2>=0.000
      93 -> 98        -0.29068
      93 -> 99         0.14520
      94 -> 99         0.11464
      95 ->100         0.54063
      95 ->105         0.10594
      96 ->114         0.11004

 Excited State  38:      Singlet-A      5.9558 eV  208.17 nm  f=0.1476  <S**2>=0.000
      93 -> 98        -0.25761
      93 -> 99        -0.19398
      94 -> 98        -0.11775
      94 ->100         0.49246
      94 ->105         0.10291
      95 -> 99        -0.10830
      96 ->116         0.18354
      96 ->117        -0.10279

 Excited State  39:      Singlet-A      5.9878 eV  207.06 nm  f=0.0739  <S**2>=0.000
      93 ->100         0.50699
      93 ->105         0.11915
      94 -> 98         0.12387
      94 ->100         0.17880
      94 ->102        -0.13154
      95 -> 98         0.11144
      96 ->116        -0.23987

 Excited State  40:      Singlet-A      6.0404 eV  205.26 nm  f=0.0446  <S**2>=0.000
      89 -> 97        -0.13475
      93 ->100         0.23569
      94 -> 98         0.10293
      96 ->115        -0.11750
      96 ->116         0.49751
      96 ->117        -0.26326

 Excited State  41:      Singlet-A      6.0853 eV  203.74 nm  f=0.0167  <S**2>=0.000
      96 ->115         0.12903
      96 ->116         0.33464
      96 ->117         0.55737

 Excited State  42:      Singlet-A      6.1031 eV  203.15 nm  f=0.0529  <S**2>=0.000
      93 -> 99        -0.16532
      93 ->101        -0.18799
      93 ->103        -0.13949
      94 ->101        -0.21459
      94 ->103        -0.14038
      95 ->101         0.39925
      95 ->102        -0.17722
      95 ->103         0.28154
      96 ->117         0.15062

 Excited State  43:      Singlet-A      6.1173 eV  202.68 nm  f=0.0604  <S**2>=0.000
      92 -> 98        -0.11858
      93 -> 99         0.21489
      93 ->101        -0.11800
      94 -> 99         0.11402
      94 ->101        -0.15141
      94 ->103        -0.10382
      94 ->105         0.11801
      95 ->101         0.25521
      95 ->102         0.48504

 Excited State  44:      Singlet-A      6.1778 eV  200.69 nm  f=0.1618  <S**2>=0.000
      92 -> 98        -0.10231
      92 -> 99        -0.13178
      93 -> 98         0.13680
      93 ->102        -0.18457
      93 ->105        -0.10772
      94 -> 98         0.11470
      94 ->100         0.10026
      94 ->102         0.49553
      94 ->104        -0.11135
      94 ->105         0.12444
      95 -> 98         0.11572
      95 ->100         0.11858

 Excited State  45:      Singlet-A      6.2005 eV  199.96 nm  f=0.0076  <S**2>=0.000
      93 ->101         0.14912
      93 ->103        -0.38115
      94 ->101        -0.18336
      94 ->103         0.49300

 Excited State  46:      Singlet-A      6.2498 eV  198.38 nm  f=0.0377  <S**2>=0.000
      93 ->102         0.22882
      93 ->104        -0.17541
      94 ->106        -0.19168
      95 ->104         0.46996
      95 ->106         0.28974

 Excited State  47:      Singlet-A      6.2600 eV  198.06 nm  f=0.0018  <S**2>=0.000
      84 -> 97        -0.19653
      86 -> 97        -0.18798
      88 -> 97         0.55020
      96 ->118         0.18266
      96 ->120        -0.15239

 Excited State  48:      Singlet-A      6.2684 eV  197.79 nm  f=0.0190  <S**2>=0.000
      93 ->102         0.38194
      93 ->103        -0.10522
      93 ->104        -0.13633
      94 ->102         0.22750
      94 ->104         0.10472
      95 ->104        -0.16241
      95 ->106        -0.11004
      96 ->118        -0.31824
      96 ->120         0.18093

 Excited State  49:      Singlet-A      6.2789 eV  197.46 nm  f=0.0091  <S**2>=0.000
      88 -> 97        -0.10345
      93 ->104        -0.18895
      93 ->106         0.21424
      94 ->104         0.47140
      94 ->106        -0.17137
      95 ->106        -0.11600
      96 ->118         0.17436
      96 ->120        -0.21523

 Excited State  50:      Singlet-A      6.2913 eV  197.07 nm  f=0.0168  <S**2>=0.000
      88 -> 97        -0.20285
      93 ->102         0.32560
      94 ->104        -0.18353
      94 ->106         0.12684
      95 ->104        -0.18045
      96 ->118         0.28281
      96 ->119         0.10912
      96 ->120        -0.29037
      96 ->121        -0.10687

 Excited State  51:      Singlet-A      6.3203 eV  196.17 nm  f=0.0040  <S**2>=0.000
      93 ->104         0.10387
      96 ->118        -0.23335
      96 ->119         0.59242
      96 ->120        -0.15730

 Excited State  52:      Singlet-A      6.3502 eV  195.24 nm  f=0.0021  <S**2>=0.000
      93 ->104        -0.14410
      96 ->118         0.39380
      96 ->119         0.32379
      96 ->120         0.39350
      96 ->121         0.15972

 Excited State  53:      Singlet-A      6.3873 eV  194.11 nm  f=0.0023  <S**2>=0.000
      87 -> 97        -0.11131
      93 ->102         0.13896
      93 ->104         0.48140
      94 ->104         0.24666
      95 ->104         0.21308
      95 ->105        -0.21103
      96 ->120         0.12483

 Excited State  54:      Singlet-A      6.4101 eV  193.42 nm  f=0.0213  <S**2>=0.000
      87 -> 97        -0.20556
      92 -> 99        -0.16729
      93 ->104         0.11786
      95 ->102         0.12315
      95 ->105         0.56130
      96 ->120         0.10486

 Excited State  55:      Singlet-A      6.4299 eV  192.82 nm  f=0.0024  <S**2>=0.000
      87 -> 97         0.64331
      95 ->105         0.14123

 Excited State  56:      Singlet-A      6.4741 eV  191.51 nm  f=0.0241  <S**2>=0.000
      86 -> 97         0.28527
      88 -> 97         0.13078
      92 -> 98        -0.14381
      92 -> 99        -0.12080
      93 ->105         0.19634
      94 ->102        -0.12512
      94 ->105         0.46427
      95 ->102        -0.13537

 Excited State  57:      Singlet-A      6.4841 eV  191.21 nm  f=0.0001  <S**2>=0.000
      86 -> 97         0.19013
      88 -> 97         0.10435
      96 ->120        -0.20400
      96 ->121         0.54071
      96 ->122        -0.27366

 Excited State  58:      Singlet-A      6.4919 eV  190.98 nm  f=0.0279  <S**2>=0.000
      85 -> 97         0.16356
      86 -> 97         0.46468
      88 -> 97         0.21284
      92 -> 98         0.13397
      94 ->105        -0.22946
      96 ->121        -0.26320
      96 ->122        -0.14554

 Excited State  59:      Singlet-A      6.5042 eV  190.62 nm  f=0.0364  <S**2>=0.000
      86 -> 97         0.13425
      92 -> 98         0.11254
      93 ->105         0.11603
      94 ->105        -0.16467
      96 ->121         0.22050
      96 ->122         0.56014

 Excited State  60:      Singlet-A      6.5311 eV  189.84 nm  f=0.0427  <S**2>=0.000
      85 -> 97        -0.19436
      93 ->105         0.57040
      94 ->102         0.14120
      96 ->122        -0.14596

 Excited State  61:      Singlet-A      6.5754 eV  188.56 nm  f=0.0696  <S**2>=0.000
      85 -> 97         0.32924
      86 -> 97        -0.14397
      92 -> 98         0.39877
      92 ->101        -0.26455
      94 ->105         0.17927
      96 ->123        -0.11552

 Excited State  62:      Singlet-A      6.5824 eV  188.36 nm  f=0.1464  <S**2>=0.000
      85 -> 97         0.16103
      92 -> 99         0.39268
      92 ->101         0.12320
      93 ->105         0.11281
      93 ->106         0.13693
      94 ->105         0.12211
      95 ->102        -0.10560
      95 ->105         0.14308
      95 ->106         0.19860
      95 ->107         0.10629
      96 ->123         0.28184

 Excited State  63:      Singlet-A      6.5911 eV  188.11 nm  f=0.0453  <S**2>=0.000
      85 -> 97         0.47459
      86 -> 97        -0.15427
      92 -> 98        -0.27500
      92 ->101         0.10325
      93 ->105         0.13736
      94 ->105        -0.16091
      96 ->123        -0.21267

 Excited State  64:      Singlet-A      6.6002 eV  187.85 nm  f=0.0094  <S**2>=0.000
      92 -> 98         0.22228
      92 -> 99        -0.20988
      92 ->100         0.13216
      92 ->101         0.41635
      93 ->106         0.17811
      94 ->106         0.13421
      95 ->102         0.10119
      95 ->107        -0.15610
      95 ->108        -0.11735

 Excited State  65:      Singlet-A      6.6021 eV  187.79 nm  f=0.0421  <S**2>=0.000
      92 -> 99        -0.17341
      92 ->100        -0.11992
      92 ->101        -0.15680
      92 ->104        -0.11573
      93 ->106         0.32523
      94 ->106         0.21585
      95 ->106         0.40211
      96 ->123        -0.11709

 Excited State  66:      Singlet-A      6.6230 eV  187.20 nm  f=0.0345  <S**2>=0.000
      85 -> 97         0.13724
      92 -> 99        -0.20005
      92 ->101        -0.25855
      96 ->123         0.51807

 Excited State  67:      Singlet-A      6.6391 eV  186.75 nm  f=0.0621  <S**2>=0.000
      92 -> 98        -0.10926
      92 -> 99         0.23057
      92 ->101        -0.13045
      93 ->104        -0.11552
      93 ->106         0.25641
      94 ->104        -0.10857
      94 ->106         0.24803
      95 ->104         0.17917
      95 ->106        -0.20573
      95 ->107        -0.19528
      95 ->108        -0.18617
      95 ->109         0.15222

 Excited State  68:      Singlet-A      6.6585 eV  186.20 nm  f=0.0029  <S**2>=0.000
      81 -> 97        -0.13407
      83 -> 97        -0.24776
      84 -> 97         0.55621
      86 -> 97        -0.17440
      88 -> 97         0.19665

 Excited State  69:      Singlet-A      6.7181 eV  184.55 nm  f=0.0026  <S**2>=0.000
      92 ->100         0.33334
      92 ->101        -0.15600
      93 ->104        -0.16029
      93 ->106        -0.22476
      93 ->108         0.18628
      94 ->104         0.20155
      94 ->106         0.26758
      94 ->108        -0.24708
      96 ->124        -0.10299

 Excited State  70:      Singlet-A      6.7304 eV  184.22 nm  f=0.0114  <S**2>=0.000
      92 ->100         0.39852
      92 ->101        -0.14896
      92 ->103         0.13460
      93 ->104         0.16778
      93 ->106         0.22012
      93 ->107        -0.10191
      94 ->104        -0.15294
      94 ->106        -0.27533
      94 ->107         0.13129

 Excited State  71:      Singlet-A      6.7489 eV  183.71 nm  f=0.0286  <S**2>=0.000
      92 ->103        -0.13540
      93 ->107        -0.14396
      93 ->108         0.15891
      94 ->107         0.28795
      94 ->108        -0.23369
      94 ->109        -0.12192
      95 ->107         0.17873
      96 ->124         0.41433

 Excited State  72:      Singlet-A      6.7604 eV  183.40 nm  f=0.0110  <S**2>=0.000
      92 ->100        -0.16160
      92 ->102         0.12987
      92 ->103         0.54632
      93 ->107        -0.11822
      95 ->107         0.11175
      96 ->125        -0.20308

 Excited State  73:      Singlet-A      6.7726 eV  183.07 nm  f=0.0128  <S**2>=0.000
      92 ->100         0.18166
      92 ->103         0.14378
      94 ->107        -0.22809
      94 ->108         0.15136
      95 ->104         0.12102
      95 ->107         0.21739
      95 ->108         0.14886
      96 ->123        -0.11909
      96 ->124         0.29098
      96 ->125         0.28545

 Excited State  74:      Singlet-A      6.7733 eV  183.05 nm  f=0.0158  <S**2>=0.000
      92 ->103         0.11222
      93 ->106        -0.15247
      94 ->104         0.11270
      95 ->104        -0.10598
      95 ->107        -0.39271
      96 ->124         0.40558
      96 ->125        -0.16814

 Excited State  75:      Singlet-A      6.8017 eV  182.28 nm  f=0.0025  <S**2>=0.000
      82 -> 97         0.11171
      83 -> 97         0.18725
      92 ->100        -0.16944
      92 ->103         0.11809
      94 ->107         0.10755
      95 ->107        -0.19376
      96 ->125         0.50673

 Excited State  76:      Singlet-A      6.8420 eV  181.21 nm  f=0.0016  <S**2>=0.000
      80 -> 97         0.12814
      82 -> 97        -0.26705
      83 -> 97        -0.26641

 The electronic state is 1-A.
 Alpha  occ. eigenvalues --  -88.90276 -88.90127 -14.40268 -14.39894 -10.28571
 Alpha  occ. eigenvalues --  -10.28164 -10.24189 -10.24071 -10.22877 -10.22804
 Alpha  occ. eigenvalues --  -10.22279 -10.22062 -10.21087 -10.19478 -10.19417
 Alpha  occ. eigenvalues --  -10.19242 -10.19143 -10.19044 -10.18725 -10.18639
 Alpha  occ. eigenvalues --  -10.18632 -10.18546 -10.18449 -10.16739 -10.16566
 Alpha  occ. eigenvalues --   -7.98835  -7.98687  -5.95168  -5.95028  -5.94802
 Alpha  occ. eigenvalues --   -5.94661  -5.94350  -5.94186  -1.02626  -1.02471
 Alpha  occ. eigenvalues --   -0.88483  -0.88380  -0.85938  -0.85048  -0.82634
 Alpha  occ. eigenvalues --   -0.79528  -0.78058  -0.77778  -0.76349  -0.75503
 Alpha  occ. eigenvalues --   -0.74798  -0.71567  -0.66908  -0.66428  -0.66226
 Alpha  occ. eigenvalues --   -0.64148  -0.62800  -0.61775  -0.60636  -0.58021
 Alpha  occ. eigenvalues --   -0.57455  -0.53988  -0.53342  -0.53251  -0.51219
 Alpha  occ. eigenvalues --   -0.50393  -0.48439  -0.48021  -0.47966  -0.47240
 Alpha  occ. eigenvalues --   -0.46845  -0.46647  -0.46152  -0.45700  -0.44467
 Alpha  occ. eigenvalues --   -0.44081  -0.42759  -0.42064  -0.41182  -0.40988
 Alpha  occ. eigenvalues --   -0.40292  -0.39946  -0.39118  -0.38818  -0.38072
 Alpha  occ. eigenvalues --   -0.37994  -0.37617  -0.37265  -0.36926  -0.36390
 Alpha  occ. eigenvalues --   -0.36000  -0.35905  -0.35743  -0.33171  -0.32429
 Alpha  occ. eigenvalues --   -0.32279  -0.28891  -0.25939  -0.25843  -0.25717
 Alpha  occ. eigenvalues --   -0.20026
 Alpha virt. eigenvalues --   -0.09700  -0.03306  -0.03284  -0.02713  -0.02291
 Alpha virt. eigenvalues --   -0.01666  -0.01646  -0.00266  -0.00125   0.00566
 Alpha virt. eigenvalues --    0.01220   0.01570   0.01941   0.02171   0.02569

 Mulliken charges:
               1
     1  C   -0.318294
     2  C    0.017232
     3  C   -0.350336
     4  C    0.566951
     5  C    0.522998
     6  S   -0.477118
     7  C    0.542220
     8  C    0.464848
     9  N    0.162079
    10  S   -0.570894
    11  C    1.039703
    12  C    0.168836
    13  N    0.166921
    14  C   -0.756700
    15  C   -0.046690
    16  C   -0.259718
    17  C   -0.292788
    18  C   -0.412841
    19  C   -0.268291
    20  C   -0.278175
    21  C   -0.331911
    22  C   -0.242110
    23  C   -0.421535
    24  C   -0.241022
    25  C   -0.493748
    26  H    0.142504
    27  H    0.142181
    28  H    0.144656
    29  H    0.154022
    30  H    0.133162
    31  H    0.132549
    32  H    0.146866
    33  H    0.152720
    34  H    0.134279
    35  H    0.132281
    36  H    0.152465
    37  H    0.154058
    38  H    0.154528
    39  H    0.150118
    40  H    0.148959
    41  H    0.148094
    42  H    0.161356
    43  H    0.159401
    44  H    0.153714
    45  H    0.160612
    46  H    0.151859
 Sum of Mulliken charges =   1.00000

 Dipole moment (field-independent basis, Debye):
    X=              1.1786    Y=              0.3787    Z=              1.2546  Tot=              1.7626
 Quadrupole moment (field-independent basis, Debye-Ang):
   XX=            -55.2865   YY=           -126.1103   ZZ=           -166.8608
   XY=             15.7374   XZ=              1.6289   YZ=              0.9141

 Normal termination of Gaussian 16 at Thu Nov  2 21:19:33 2023.
