 Gaussian 16, Revision C.02,
 Gaussian 16:  ES64L-G16RevC.02  7-Dec-2021

 -----------------------------------------------------------------
 # td=(nstates=150) b3lyp/6-311+g(2d,p) scrf(smd, solvent=ethanol)
 -----------------------------------------------------------------

 ---
 B-1
 ---
 Symbolic Z-matrix:
 Charge =  0 Multiplicity = 1

                         Standard orientation:
 ---------------------------------------------------------------------
 Center     Atomic      Atomic             Coordinates (Angstroms)
 Number     Number       Type             X           Y           Z
 ---------------------------------------------------------------------
      1          6           0       13.193247    1.965180    0.357514
      2          6           0       14.150234    1.366297   -0.666837
      3          6           0       14.197930   -0.145886   -0.469985
      4          6           0       12.839886   -0.781119   -0.265942
      5          6           0       11.699193   -0.069117   -0.020535
      6          6           0       11.734254    1.463294    0.197940
      7          6           0       10.434640   -0.808638    0.027915
      8          6           0        9.147698   -0.368486    0.051934
      9          6           0        7.970978   -1.218813    0.064023
     10          6           0        6.738479   -0.618773    0.069992
     11          6           0        5.445845   -1.238015    0.078209
     12          6           0        4.280328   -0.525977    0.081210
     13          6           0        2.942601   -1.063627    0.086009
     14          6           0        1.885522   -0.185039    0.086900
     15          6           0        0.488362   -0.479870    0.088382
     16          6           0       -0.488364    0.479879    0.088381
     17          6           0       -1.885523    0.185049    0.086901
     18          6           0       -2.942603    1.063636    0.086010
     19          6           0       -4.280330    0.525984    0.081210
     20          6           0       -5.445847    1.238022    0.078205
     21          6           0       -6.738480    0.618778    0.069986
     22          6           0       -7.970980    1.218816    0.064016
     23          6           0       -9.147699    0.368486    0.051926
     24          6           0      -10.434641    0.808636    0.027911
     25          6           0      -11.699193    0.069112   -0.020539
     26          6           0      -11.734248   -1.463299    0.197935
     27          6           0       11.014600    1.853868    1.513234
     28          6           0       11.087577    2.209256   -0.996377
     29          6           0       12.878927   -2.293643   -0.398885
     30          6           0      -13.193238   -1.965187    0.357525
     31          6           0      -14.150237   -1.366308   -0.666817
     32          6           0      -14.197934    0.145875   -0.469969
     33          6           0      -12.839889    0.781111   -0.265939
     34          6           0      -11.014576   -1.853870    1.513220
     35          6           0      -11.087582   -2.209257   -0.996389
     36          6           0      -12.878932    2.293635   -0.398883
     37          6           0       -8.156563    2.717180    0.068498
     38          6           0       -2.769507    2.564242    0.088788
     39          6           0        2.769504   -2.564233    0.088790
     40          6           0        8.156557   -2.717177    0.068503
     41          1           0       13.552240    1.704444    1.363722
     42          1           0       13.191791    3.061587    0.302962
     43          1           0       15.153148    1.798268   -0.563053
     44          1           0       13.813091    1.597755   -1.685187
     45          1           0       14.836732   -0.392637    0.395545
     46          1           0       14.685170   -0.631298   -1.328645
     47          1           0       10.553209   -1.886254   -0.000126
     48          1           0        8.931571    0.694424    0.048253
     49          1           0        6.727188    0.472294    0.066595
     50          1           0        5.394190   -2.323329    0.080545
     51          1           0        4.354073    0.562407    0.078511
     52          1           0        2.136434    0.876729    0.085263
     53          1           0        0.172471   -1.521700    0.088524
     54          1           0       -0.172472    1.521709    0.088521
     55          1           0       -2.136435   -0.876720    0.085267
     56          1           0       -4.354074   -0.562400    0.078514
     57          1           0       -5.394193    2.323335    0.080538
     58          1           0       -6.727188   -0.472289    0.066588
     59          1           0       -8.931568   -0.694423    0.048240
     60          1           0      -10.553213    1.886252   -0.000123
     61          1           0       11.416560    1.280584    2.356412
     62          1           0       11.183965    2.918133    1.720013
     63          1           0        9.936160    1.690871    1.488587
     64          1           0       10.062275    1.884980   -1.187807
     65          1           0       11.067226    3.288779   -0.800274
     66          1           0       11.653135    2.045583   -1.919919
     67          1           0       13.913764   -2.648960   -0.350635
     68          1           0       12.324510   -2.809583    0.392139
     69          1           0       12.468777   -2.633235   -1.360075
     70          1           0      -13.191780   -3.061594    0.302976
     71          1           0      -13.552222   -1.704450    1.363737
     72          1           0      -15.153149   -1.798281   -0.563022
     73          1           0      -13.813104   -1.597768   -1.685170
     74          1           0      -14.836727    0.392627    0.395567
     75          1           0      -14.685183    0.631285   -1.328625
     76          1           0      -11.183932   -2.918136    1.719999
     77          1           0       -9.936137   -1.690867    1.488558
     78          1           0      -11.416527   -1.280589    2.356403
     79          1           0      -10.062283   -1.884978   -1.187830
     80          1           0      -11.067226   -3.288781   -0.800288
     81          1           0      -11.653150   -2.045585   -1.919926
     82          1           0      -13.913771    2.648951   -0.350639
     83          1           0      -12.324521    2.809577    0.392144
     84          1           0      -12.468777    2.633229   -1.360071
     85          1           0       -8.744087    3.036457    0.938730
     86          1           0       -7.209146    3.257946    0.093047
     87          1           0       -8.704221    3.047232   -0.823677
     88          1           0       -3.248036    3.011075    0.969534
     89          1           0       -1.721470    2.868026    0.092705
     90          1           0       -3.242385    3.013831   -0.793611
     91          1           0        3.242396   -3.013825   -0.793600
     92          1           0        3.248019   -3.011063    0.969546
     93          1           0        1.721466   -2.868016    0.092692
     94          1           0        7.209140   -3.257941    0.093061
     95          1           0        8.704208   -3.047230   -0.823677
     96          1           0        8.744089   -3.036455    0.938730
 ---------------------------------------------------------------------

 SCF Done:  E(RB3LYP) =  -1558.37466751     A.U. after   13 cycles

 Excitation energies and oscillator strengths:

 Excited State   1:      Singlet-A      1.9212 eV  645.35 nm  f=4.3036  <S**2>=0.000
     148 -> 149        0.70756
 This state for optimization and/or second-order correction.
 Total Energy, E(TD-HF/TD-DFT) =  -1558.30406519
 Copying the excited state density for this state as the 1-particle RhoCI density.

 Excited State   2:      Singlet-A      2.4562 eV  504.78 nm  f=0.0001  <S**2>=0.000
     147 -> 149        0.61456
     148 -> 150       -0.33845

 Excited State   3:      Singlet-A      2.9765 eV  416.55 nm  f=0.0023  <S**2>=0.000
     147 -> 149        0.34454
     148 -> 150        0.61557

 Excited State   4:      Singlet-A      3.0988 eV  400.10 nm  f=0.0872  <S**2>=0.000
     146 -> 149        0.63978
     147 -> 150        0.10814
     148 -> 151        0.26913

 Excited State   5:      Singlet-A      3.4276 eV  361.72 nm  f=0.1870  <S**2>=0.000
     147 -> 150        0.58207
     148 -> 151       -0.38798

 Excited State   6:      Singlet-A      3.7329 eV  332.14 nm  f=0.0000  <S**2>=0.000
     145 -> 149        0.65843
     148 -> 152        0.20146

 Excited State   7:      Singlet-A      3.7857 eV  327.51 nm  f=0.3561  <S**2>=0.000
     144 -> 149       -0.17738
     146 -> 149       -0.27921
     147 -> 150        0.36738
     148 -> 151        0.50305

 Excited State   8:      Singlet-A      4.0040 eV  309.65 nm  f=0.0001  <S**2>=0.000
     146 -> 150        0.62491
     147 -> 151        0.24409
     148 -> 152        0.18003

 Excited State   9:      Singlet-A      4.2051 eV  294.85 nm  f=0.0010  <S**2>=0.000
     146 -> 150       -0.11367
     147 -> 151        0.57137
     148 -> 152       -0.38729

 Excited State  10:      Singlet-A      4.2273 eV  293.29 nm  f=0.0562  <S**2>=0.000
     144 -> 149        0.64360
     148 -> 151        0.13645
     148 -> 154        0.10403
     148 -> 161       -0.15684

 Excited State  11:      Singlet-A      4.2488 eV  291.81 nm  f=0.0043  <S**2>=0.000
     147 -> 154        0.12720
     148 -> 152        0.10572
     148 -> 153        0.62815
     148 -> 155       -0.24391

 Excited State  12:      Singlet-A      4.3076 eV  287.82 nm  f=0.0038  <S**2>=0.000
     147 -> 153        0.16886
     148 -> 154        0.63691
     148 -> 156       -0.18527
     148 -> 157       -0.11349

 Excited State  13:      Singlet-A      4.4492 eV  278.66 nm  f=0.0004  <S**2>=0.000
     143 -> 149        0.10022
     146 -> 150       -0.12632
     147 -> 151        0.13830
     147 -> 154        0.12166
     148 -> 152        0.28465
     148 -> 153        0.12133
     148 -> 155        0.53317
     148 -> 158       -0.12725
     148 -> 160        0.14031

 Excited State  14:      Singlet-A      4.5160 eV  274.54 nm  f=0.0050  <S**2>=0.000
     143 -> 149        0.26851
     145 -> 149       -0.18410
     146 -> 150       -0.22167
     147 -> 151        0.22824
     148 -> 152        0.36268
     148 -> 153       -0.21175
     148 -> 155       -0.27021
     148 -> 158        0.13222

 Excited State  15:      Singlet-A      4.5235 eV  274.09 nm  f=0.0007  <S**2>=0.000
     148 -> 156        0.52542
     148 -> 157       -0.38647
     148 -> 159        0.22152

 Excited State  16:      Singlet-A      4.5884 eV  270.21 nm  f=0.0002  <S**2>=0.000
     145 -> 150        0.16728
     147 -> 155        0.12581
     148 -> 154        0.18275
     148 -> 156        0.33693
     148 -> 157        0.51502
     148 -> 165        0.14900

 Excited State  17:      Singlet-A      4.6209 eV  268.31 nm  f=0.0028  <S**2>=0.000
     145 -> 150        0.58991
     147 -> 152        0.17399
     148 -> 156       -0.10206
     148 -> 157       -0.11674
     148 -> 159       -0.10016
     148 -> 161       -0.22230

 Excited State  18:      Singlet-A      4.6325 eV  267.64 nm  f=0.0046  <S**2>=0.000
     147 -> 156        0.10984
     148 -> 155        0.16083
     148 -> 158        0.63599
     148 -> 164       -0.15093

 Excited State  19:      Singlet-A      4.7463 eV  261.22 nm  f=0.0024  <S**2>=0.000
     147 -> 158       -0.14026
     148 -> 156       -0.18770
     148 -> 159        0.63049
     148 -> 166        0.11346

 Excited State  20:      Singlet-A      4.7587 eV  260.54 nm  f=0.0002  <S**2>=0.000
     143 -> 149        0.11236
     147 -> 157       -0.13189
     148 -> 155       -0.16054
     148 -> 160        0.63292

 Excited State  21:      Singlet-A      4.8351 eV  256.42 nm  f=0.1319  <S**2>=0.000
     145 -> 150       -0.18280
     146 -> 151        0.60785
     148 -> 161       -0.28652

 Excited State  22:      Singlet-A      4.8523 eV  255.51 nm  f=0.0009  <S**2>=0.000
     143 -> 149        0.56966
     146 -> 150        0.11549
     147 -> 151       -0.12928
     148 -> 152       -0.19638
     148 -> 162        0.10503
     148 -> 167       -0.13292
     148 -> 168        0.12795

 Excited State  23:      Singlet-A      4.9135 eV  252.34 nm  f=0.0009  <S**2>=0.000
     142 -> 149        0.10468
     146 -> 151       -0.12836
     147 -> 152       -0.20640
     147 -> 160       -0.11749
     148 -> 163        0.51316
     148 -> 165       -0.29806

 Excited State  24:      Singlet-A      4.9235 eV  251.82 nm  f=0.0000  <S**2>=0.000
     147 -> 163        0.14290
     148 -> 162        0.64300
     148 -> 168       -0.14146

 Excited State  25:      Singlet-A      4.9289 eV  251.55 nm  f=0.0118  <S**2>=0.000
     146 -> 151        0.13696
     147 -> 152        0.40794
     147 -> 162        0.11445
     148 -> 161        0.37249
     148 -> 163        0.33906
     148 -> 165        0.11571

 Excited State  26:      Singlet-A      4.9434 eV  250.81 nm  f=0.0017  <S**2>=0.000
     141 -> 150       -0.16025
     142 -> 149        0.65488
     148 -> 165        0.13569

 Excited State  27:      Singlet-A      4.9516 eV  250.39 nm  f=0.0001  <S**2>=0.000
     141 -> 149        0.67319
     142 -> 150       -0.16590

 Excited State  28:      Singlet-A      4.9584 eV  250.05 nm  f=0.0001  <S**2>=0.000
     147 -> 159       -0.13123
     148 -> 158        0.14004
     148 -> 162        0.10682
     148 -> 164        0.64480

 Excited State  29:      Singlet-A      4.9587 eV  250.03 nm  f=0.0024  <S**2>=0.000
     142 -> 149       -0.11380
     147 -> 152       -0.25604
     147 -> 153        0.13395
     147 -> 160        0.10435
     148 -> 161       -0.15282
     148 -> 163        0.23162
     148 -> 165        0.51659

 Excited State  30:      Singlet-A      4.9978 eV  248.08 nm  f=0.0015  <S**2>=0.000
     146 -> 154       -0.11461
     147 -> 153        0.59830
     147 -> 155       -0.10628
     148 -> 154       -0.14564
     148 -> 161       -0.15466
     148 -> 165       -0.17934

 Excited State  31:      Singlet-A      5.0233 eV  246.82 nm  f=0.0003  <S**2>=0.000
     146 -> 153       -0.13836
     147 -> 154        0.63099
     148 -> 153       -0.15226
     148 -> 160       -0.11458

 Excited State  32:      Singlet-A      5.0935 eV  243.42 nm  f=0.0000  <S**2>=0.000
     143 -> 149        0.13694
     144 -> 150        0.55737
     147 -> 161       -0.13433
     148 -> 167        0.29635
     148 -> 168       -0.15171

 Excited State  33:      Singlet-A      5.1129 eV  242.49 nm  f=0.0302  <S**2>=0.000
     140 -> 149       -0.24205
     144 -> 149       -0.11878
     145 -> 150       -0.21226
     146 -> 151       -0.20068
     147 -> 152        0.33897
     147 -> 153       -0.14952
     147 -> 155        0.14776
     148 -> 161       -0.28125
     148 -> 171        0.18370
     148 -> 173        0.17431

 Excited State  34:      Singlet-A      5.1436 eV  241.05 nm  f=0.0000  <S**2>=0.000
     147 -> 155       -0.12170
     147 -> 164        0.15109
     148 -> 159       -0.10417
     148 -> 166        0.64484

 Excited State  35:      Singlet-A      5.1703 eV  239.80 nm  f=0.0002  <S**2>=0.000
     144 -> 150       -0.22821
     148 -> 162        0.11753
     148 -> 167        0.53619
     148 -> 168        0.26916
     148 -> 169        0.12917

 Excited State  36:      Singlet-A      5.1886 eV  238.95 nm  f=0.0020  <S**2>=0.000
     147 -> 155        0.60700
     147 -> 158       -0.11160
     148 -> 166        0.10022
     148 -> 170        0.11037
     148 -> 171       -0.10399
     148 -> 173       -0.11067

 Excited State  37:      Singlet-A      5.2125 eV  237.86 nm  f=0.0097  <S**2>=0.000
     140 -> 149        0.32302
     147 -> 155        0.10352
     148 -> 170       -0.18695
     148 -> 171        0.47617
     148 -> 173        0.24261

 Excited State  38:      Singlet-A      5.2527 eV  236.04 nm  f=0.0000  <S**2>=0.000
     147 -> 156        0.59535
     148 -> 155       -0.10242
     148 -> 168        0.11733
     148 -> 169        0.15718
     148 -> 172        0.14788

 Excited State  39:      Singlet-A      5.2807 eV  234.79 nm  f=0.0002  <S**2>=0.000
     147 -> 156       -0.21496
     147 -> 157        0.52011
     147 -> 165        0.11748
     148 -> 158        0.11328
     148 -> 160        0.12740
     148 -> 169        0.21819
     148 -> 172        0.22023

 Excited State  40:      Singlet-A      5.2920 eV  234.28 nm  f=0.0000  <S**2>=0.000
     144 -> 150       -0.10176
     147 -> 157       -0.11875
     147 -> 170       -0.13478
     148 -> 168       -0.24636
     148 -> 169        0.53670
     148 -> 172       -0.18994
     148 -> 179        0.12095

 Excited State  41:      Singlet-A      5.2961 eV  234.11 nm  f=0.0162  <S**2>=0.000
     140 -> 149       -0.23597
     147 -> 152       -0.12875
     147 -> 158       -0.11575
     147 -> 168        0.12704
     148 -> 161        0.17003
     148 -> 170        0.24725
     148 -> 173        0.48828

 Excited State  42:      Singlet-A      5.3068 eV  233.63 nm  f=0.0020  <S**2>=0.000
     140 -> 149        0.13861
     147 -> 169       -0.13967
     148 -> 170        0.56030
     148 -> 171        0.23840
     148 -> 173       -0.14984

 Excited State  43:      Singlet-A      5.3103 eV  233.48 nm  f=0.0000  <S**2>=0.000
     139 -> 149       -0.19967
     143 -> 149       -0.11917
     144 -> 150        0.25276
     145 -> 151       -0.16091
     147 -> 157       -0.14163
     148 -> 167       -0.14378
     148 -> 168        0.43875
     148 -> 169        0.17563
     148 -> 172       -0.15984

 Excited State  44:      Singlet-A      5.3414 eV  232.12 nm  f=0.0010  <S**2>=0.000
     147 -> 155        0.10165
     147 -> 158        0.62081
     148 -> 170        0.10363
     148 -> 173        0.13078

 Excited State  45:      Singlet-A      5.3609 eV  231.28 nm  f=0.0004  <S**2>=0.000
     139 -> 149        0.48828
     145 -> 151       -0.12560
     147 -> 156       -0.10802
     147 -> 157       -0.25717
     148 -> 167       -0.11542
     148 -> 168        0.10050
     148 -> 172        0.30770

 Excited State  46:      Singlet-A      5.3646 eV  231.11 nm  f=0.0094  <S**2>=0.000
     138 -> 149        0.32918
     139 -> 150       -0.10845
     140 -> 149        0.43294
     147 -> 152        0.10547
     147 -> 158       -0.12487
     148 -> 171       -0.25729
     148 -> 173        0.19161

 Excited State  47:      Singlet-A      5.3671 eV  231.01 nm  f=0.0000  <S**2>=0.000
     139 -> 149       -0.39605
     145 -> 151        0.14456
     147 -> 157       -0.25738
     148 -> 169        0.10002
     148 -> 172        0.42559

 Excited State  48:      Singlet-A      5.4167 eV  228.89 nm  f=0.0002  <S**2>=0.000
     145 -> 151        0.50037
     146 -> 152       -0.11759
     147 -> 159       -0.25348
     147 -> 161       -0.11543
     148 -> 168        0.15734
     148 -> 174       -0.25782

 Excited State  49:      Singlet-A      5.4279 eV  228.42 nm  f=0.0015  <S**2>=0.000
     145 -> 151        0.28867
     147 -> 159        0.24989
     147 -> 161       -0.12703
     147 -> 166        0.11187
     148 -> 164        0.11242
     148 -> 172       -0.15408
     148 -> 174        0.45263
     148 -> 176        0.16381

 Excited State  50:      Singlet-A      5.4305 eV  228.31 nm  f=0.0068  <S**2>=0.000
     138 -> 149        0.58137
     140 -> 149       -0.15278
     148 -> 171        0.19081
     148 -> 173       -0.16323

 Excited State  51:      Singlet-A      5.4526 eV  227.39 nm  f=0.0002  <S**2>=0.000
     147 -> 160        0.54584
     147 -> 172       -0.12448
     148 -> 165       -0.17035
     148 -> 175       -0.32830

 Excited State  52:      Singlet-A      5.4640 eV  226.91 nm  f=0.0014  <S**2>=0.000
     137 -> 149        0.11962
     147 -> 159        0.51709
     148 -> 169       -0.12131
     148 -> 174       -0.29245
     148 -> 179        0.20669

 Excited State  53:      Singlet-A      5.4751 eV  226.45 nm  f=0.0000  <S**2>=0.000
     137 -> 149        0.61368
     146 -> 152        0.10557
     147 -> 161        0.12728
     148 -> 167        0.11088

 Excited State  54:      Singlet-A      5.5138 eV  224.86 nm  f=0.0015  <S**2>=0.000
     147 -> 160        0.33574
     148 -> 175        0.55925
     148 -> 177       -0.10515

 Excited State  55:      Singlet-A      5.5274 eV  224.31 nm  f=0.0007  <S**2>=0.000
     146 -> 152        0.15185
     147 -> 159        0.14370
     147 -> 163        0.10342
     147 -> 177       -0.11026
     148 -> 174       -0.21104
     148 -> 176        0.53294
     148 -> 179       -0.22359

 Excited State  56:      Singlet-A      5.5294 eV  224.23 nm  f=0.0214  <S**2>=0.000
     147 -> 160        0.10560
     147 -> 176       -0.10260
     148 -> 177        0.57946
     148 -> 180        0.28194

 Excited State  57:      Singlet-A      5.5830 eV  222.07 nm  f=0.0003  <S**2>=0.000
     146 -> 152        0.10623
     147 -> 159       -0.11105
     147 -> 161        0.11832
     147 -> 165        0.11233
     148 -> 174        0.11293
     148 -> 176        0.25519
     148 -> 179        0.54600

 Excited State  58:      Singlet-A      5.5876 eV  221.89 nm  f=0.0003  <S**2>=0.000
     143 -> 150       -0.15070
     147 -> 162        0.20559
     147 -> 176        0.10626
     148 -> 173        0.11408
     148 -> 177       -0.20219
     148 -> 180        0.53475

 Excited State  59:      Singlet-A      5.5934 eV  221.66 nm  f=0.0006  <S**2>=0.000
     147 -> 162       -0.10387
     147 -> 174        0.13979
     148 -> 166        0.12059
     148 -> 178        0.62179
     148 -> 182       -0.11182

 Excited State  60:      Singlet-A      5.5982 eV  221.47 nm  f=0.0002  <S**2>=0.000
     146 -> 152        0.43105
     147 -> 161       -0.39871
     147 -> 163       -0.30719
     148 -> 162        0.10225

 Excited State  61:      Singlet-A      5.6045 eV  221.22 nm  f=0.0002  <S**2>=0.000
     137 -> 149        0.15676
     146 -> 152        0.14188
     147 -> 161       -0.30688
     147 -> 163        0.49669
     148 -> 181        0.21261

 Excited State  62:      Singlet-A      5.6088 eV  221.05 nm  f=0.0017  <S**2>=0.000
     143 -> 150        0.15040
     146 -> 163       -0.12327
     147 -> 162        0.59478
     148 -> 163       -0.12831
     148 -> 177        0.16497

 Excited State  63:      Singlet-A      5.6350 eV  220.03 nm  f=0.0001  <S**2>=0.000
     146 -> 152       -0.13781
     146 -> 153       -0.19827
     147 -> 161       -0.11025
     147 -> 163       -0.23549
     147 -> 165        0.14393
     148 -> 168       -0.10140
     148 -> 179       -0.11945
     148 -> 181        0.51141

 Excited State  64:      Singlet-A      5.6584 eV  219.11 nm  f=0.0032  <S**2>=0.000
     145 -> 154        0.10013
     146 -> 152        0.11670
     146 -> 153        0.48884
     147 -> 154        0.11517
     147 -> 161        0.22635
     148 -> 176       -0.10245
     148 -> 181        0.28647

 Excited State  65:      Singlet-A      5.6653 eV  218.85 nm  f=0.0001  <S**2>=0.000
     146 -> 154        0.24631
     147 -> 164        0.54032
     148 -> 166       -0.12240
     148 -> 182       -0.23326

 Excited State  66:      Singlet-A      5.6728 eV  218.56 nm  f=0.0004  <S**2>=0.000
     146 -> 152        0.15796
     146 -> 160       -0.11288
     147 -> 165        0.59146
     148 -> 172       -0.14766

 Excited State  67:      Singlet-A      5.6974 eV  217.62 nm  f=0.0007  <S**2>=0.000
     145 -> 153        0.12441
     146 -> 154        0.57743
     147 -> 153        0.11934
     147 -> 164       -0.28114

 Excited State  68:      Singlet-A      5.6983 eV  217.58 nm  f=0.0012  <S**2>=0.000
     135 -> 149        0.11257
     145 -> 151       -0.16438
     146 -> 152       -0.33677
     146 -> 153        0.35380
     146 -> 155       -0.10673
     147 -> 161       -0.22853
     147 -> 165        0.10344
     148 -> 176        0.15796
     148 -> 184       -0.12548
     148 -> 185        0.17111

 Excited State  69:      Singlet-A      5.7273 eV  216.48 nm  f=0.0003  <S**2>=0.000
     143 -> 150       -0.19017
     146 -> 154        0.12433
     147 -> 164        0.22839
     147 -> 179        0.11469
     148 -> 178        0.14268
     148 -> 182        0.56170

 Excited State  70:      Singlet-A      5.7385 eV  216.06 nm  f=0.0086  <S**2>=0.000
     136 -> 149        0.53514
     143 -> 150       -0.35321
     148 -> 182       -0.17238

 Excited State  71:      Singlet-A      5.7704 eV  214.86 nm  f=0.0001  <S**2>=0.000
     135 -> 149        0.66987
     136 -> 150       -0.10707

 Excited State  72:      Singlet-A      5.7772 eV  214.61 nm  f=0.0041  <S**2>=0.000
     136 -> 149        0.40912
     143 -> 150        0.41433
     147 -> 168        0.11295
     148 -> 177       -0.13116
     148 -> 180        0.17530
     148 -> 182        0.11587
     148 -> 183        0.14897

 Excited State  73:      Singlet-A      5.8271 eV  212.77 nm  f=0.0000  <S**2>=0.000
     141 -> 149        0.18697
     141 -> 151       -0.19035
     142 -> 150        0.62694

 Excited State  74:      Singlet-A      5.8328 eV  212.56 nm  f=0.0066  <S**2>=0.000
     132 -> 149        0.11854
     141 -> 150        0.40186
     142 -> 149        0.12093
     142 -> 151       -0.12198
     147 -> 167        0.22231
     148 -> 183        0.42856

 Excited State  75:      Singlet-A      5.8331 eV  212.55 nm  f=0.0000  <S**2>=0.000
     146 -> 155        0.56056
     147 -> 166        0.12106
     148 -> 184       -0.25303

 Excited State  76:      Singlet-A      5.8373 eV  212.40 nm  f=0.0033  <S**2>=0.000
     130 -> 149       -0.16544
     132 -> 149        0.17034
     141 -> 150        0.40470
     142 -> 149        0.11822
     142 -> 151       -0.11676
     143 -> 150        0.10340
     147 -> 167       -0.29821
     148 -> 183       -0.30779

 Excited State  77:      Singlet-A      5.8479 eV  212.02 nm  f=0.0007  <S**2>=0.000
     146 -> 164       -0.11701
     147 -> 166        0.55309
     147 -> 178       -0.12033
     148 -> 174       -0.13588
     148 -> 184        0.29053
     148 -> 185        0.17143

 Excited State  78:      Singlet-A      5.8489 eV  211.98 nm  f=0.0002  <S**2>=0.000
     130 -> 149        0.50457
     132 -> 149       -0.36397
     141 -> 150        0.24520

 Excited State  79:      Singlet-A      5.8772 eV  210.96 nm  f=0.0022  <S**2>=0.000
     146 -> 155        0.28655
     147 -> 166       -0.22258
     147 -> 171       -0.11473
     148 -> 184        0.46861
     148 -> 190       -0.14670

 Excited State  80:      Singlet-A      5.8976 eV  210.23 nm  f=0.0000  <S**2>=0.000
     134 -> 149        0.10696
     143 -> 150        0.16063
     144 -> 151        0.56695
     147 -> 167        0.26434
     148 -> 183       -0.12555

 Excited State  81:      Singlet-A      5.8999 eV  210.15 nm  f=0.0005  <S**2>=0.000
     146 -> 152        0.10074
     147 -> 166       -0.18530
     147 -> 170       -0.14575
     147 -> 171        0.23202
     148 -> 185        0.47679
     148 -> 193        0.18441

 Excited State  82:      Singlet-A      5.9134 eV  209.67 nm  f=0.0000  <S**2>=0.000
     146 -> 156        0.62048
     146 -> 157       -0.12473
     146 -> 159        0.11575

 Excited State  83:      Singlet-A      5.9258 eV  209.23 nm  f=0.0026  <S**2>=0.000
     144 -> 151       -0.19627
     146 -> 156       -0.11443
     147 -> 167        0.25902
     147 -> 168        0.51910
     148 -> 171        0.10039
     148 -> 183       -0.15390

 Excited State  84:      Singlet-A      5.9282 eV  209.14 nm  f=0.0000  <S**2>=0.000
     129 -> 149        0.51251
     131 -> 149       -0.41918
     132 -> 150        0.12083

 Excited State  85:      Singlet-A      5.9388 eV  208.77 nm  f=0.0079  <S**2>=0.000
     134 -> 149        0.37061
     143 -> 150       -0.10515
     144 -> 151        0.15126
     147 -> 167       -0.36058
     147 -> 168        0.19094
     148 -> 173       -0.10424
     148 -> 183        0.26610
     148 -> 189        0.13459

 Excited State  86:      Singlet-A      5.9391 eV  208.76 nm  f=0.0011  <S**2>=0.000

 The electronic state is 1-A.
 Alpha  occ. eigenvalues --  -10.18436 -10.18436 -10.18275 -10.18275 -10.17993
 Alpha  occ. eigenvalues --  -10.17993 -10.17721 -10.17721 -10.17312 -10.17245
 Alpha  occ. eigenvalues --  -10.17071 -10.17071 -10.17007 -10.17007 -10.16951
 Alpha  occ. eigenvalues --  -10.16951 -10.16918 -10.16918 -10.16723 -10.16723
 Alpha  occ. eigenvalues --  -10.16594 -10.16593 -10.16347 -10.16347 -10.16065
 Alpha  occ. eigenvalues --  -10.16065 -10.15836 -10.15836 -10.15763 -10.15763
 Alpha  occ. eigenvalues --  -10.15597 -10.15596 -10.15312 -10.15312 -10.15196
 Alpha  occ. eigenvalues --  -10.15196 -10.14680 -10.14680 -10.14656 -10.14656
 Alpha  occ. eigenvalues --   -0.84814  -0.84812  -0.83862  -0.83330  -0.82360
 Alpha  occ. eigenvalues --   -0.81731  -0.79291  -0.78283  -0.78266  -0.77715
 Alpha  occ. eigenvalues --   -0.76990  -0.75520  -0.74412  -0.72164  -0.71817
 Alpha  occ. eigenvalues --   -0.70233  -0.68643  -0.68625  -0.68110  -0.67893
 Alpha  occ. eigenvalues --   -0.67711  -0.67706  -0.66858  -0.66787  -0.66567
 Alpha  occ. eigenvalues --   -0.63584  -0.61526  -0.59995  -0.58654  -0.56928
 Alpha  occ. eigenvalues --   -0.55934  -0.55933  -0.54867  -0.54417  -0.53339
 Alpha  occ. eigenvalues --   -0.52977  -0.52338  -0.51180  -0.50055  -0.49652
 Alpha  occ. eigenvalues --   -0.48330  -0.47464  -0.47223  -0.46870  -0.46440
 Alpha  occ. eigenvalues --   -0.46004  -0.44736  -0.44395  -0.44057  -0.43921
 Alpha  occ. eigenvalues --   -0.43086  -0.42723  -0.42157  -0.41899  -0.41812
 Alpha  occ. eigenvalues --   -0.41758  -0.41585  -0.41504  -0.41385  -0.41300
 Alpha  occ. eigenvalues --   -0.41245  -0.41229  -0.39962  -0.39931  -0.39783
 Alpha  occ. eigenvalues --   -0.39685  -0.39220  -0.38589  -0.38473  -0.38421
 Alpha  occ. eigenvalues --   -0.38253  -0.38243  -0.37497  -0.37194  -0.36886
 Alpha  occ. eigenvalues --   -0.36398  -0.36312  -0.36176  -0.36000  -0.35907
 Alpha  occ. eigenvalues --   -0.35436  -0.34876  -0.34549  -0.34547  -0.34406
 Alpha  occ. eigenvalues --   -0.34249  -0.34163  -0.34006  -0.33655  -0.33423
 Alpha  occ. eigenvalues --   -0.33271  -0.33254  -0.33207  -0.32644  -0.31506
 Alpha  occ. eigenvalues --   -0.31441  -0.30670  -0.30359  -0.30186  -0.29894
 Alpha  occ. eigenvalues --   -0.28830  -0.28807  -0.28135  -0.25808  -0.23986
 Alpha  occ. eigenvalues --   -0.21633  -0.19208  -0.16761
 Alpha virt. eigenvalues --   -0.09091  -0.05663  -0.02800   0.00137   0.00603
 Alpha virt. eigenvalues --    0.00643   0.01205   0.01428   0.01749   0.01758
 Alpha virt. eigenvalues --    0.02155   0.02248   0.02452   0.02721   0.02746

 Mulliken charges:
               1
     1  C   -0.309709
     2  C   -0.386825
     3  C   -0.388484
     4  C    0.125358
     5  C    0.210399
     6  C    0.651384
     7  C   -0.114171
     8  C   -0.137197
     9  C    0.299314
    10  C   -0.207535
    11  C   -0.126748
    12  C   -0.147125
    13  C    0.563109
    14  C   -0.189369
    15  C   -0.109647
    16  C   -0.109646
    17  C   -0.189369
    18  C    0.563107
    19  C   -0.147125
    20  C   -0.126747
    21  C   -0.207536
    22  C    0.299315
    23  C   -0.137195
    24  C   -0.114173
    25  C    0.210403
    26  C    0.651384
    27  C   -0.548404
    28  C   -0.568588
    29  C   -0.622017
    30  C   -0.309710
    31  C   -0.386825
    32  C   -0.388485
    33  C    0.125355
    34  C   -0.548402
    35  C   -0.568589
    36  C   -0.622019
    37  C   -0.804569
    38  C   -0.831420
    39  C   -0.831421
    40  C   -0.804570
    41  H    0.110196
    42  H    0.110141
    43  H    0.118964
    44  H    0.113935
    45  H    0.142247
    46  H    0.139430
    47  H    0.113741
    48  H    0.105373
    49  H    0.108496
    50  H    0.120615
    51  H    0.107839
    52  H    0.109860
    53  H    0.113158
    54  H    0.113158
    55  H    0.109860
    56  H    0.107839
    57  H    0.120615
    58  H    0.108496
    59  H    0.105373
    60  H    0.113741
    61  H    0.134453
    62  H    0.137180
    63  H    0.128557
    64  H    0.133497
    65  H    0.131498
    66  H    0.129161
    67  H    0.142455
    68  H    0.148107
    69  H    0.158128
    70  H    0.110141
    71  H    0.110196
    72  H    0.118964
    73  H    0.113935
    74  H    0.142247
    75  H    0.139429
    76  H    0.137180
    77  H    0.128556
    78  H    0.134453
    79  H    0.133497
    80  H    0.131498
    81  H    0.129161
    82  H    0.142455
    83  H    0.148108
    84  H    0.158128
    85  H    0.152250
    86  H    0.138124
    87  H    0.153593
    88  H    0.151231
    89  H    0.139129
    90  H    0.150889
    91  H    0.150888
    92  H    0.151232
    93  H    0.139129
    94  H    0.138124
    95  H    0.153593
    96  H    0.152250
 Sum of Mulliken charges =  -0.00000

 Dipole moment (field-independent basis, Debye):
    X=              0.0000    Y=             -0.0000    Z=             -0.5250  Tot=              0.5250
 Quadrupole moment (field-independent basis, Debye-Ang):
   XX=           -154.1336   YY=           -229.7608   ZZ=           -264.5390
   XY=            -15.1038   XZ=             -0.0002   YZ=              0.0000

 Normal termination of Gaussian 16 at Fri Nov  3 01:49:35 2023.
