 Gaussian 16, Revision C.02,
 Gaussian 16:  ES64L-G16RevC.02  7-Dec-2021

 -----------------------------------------------------------------
 # td=(nstates=150) b3lyp/6-311+g(2d,p) scrf(smd, solvent=ethanol)
 -----------------------------------------------------------------

 ---
 A-3
 ---
 Symbolic Z-matrix:
 Charge =  1 Multiplicity = 1

                         Standard orientation:
 ---------------------------------------------------------------------
 Center     Atomic      Atomic             Coordinates (Angstroms)
 Number     Number       Type             X           Y           Z
 ---------------------------------------------------------------------
      1          6           0       -2.428041    1.066524   -0.253176
      2          6           0       -1.163701    0.479343   -0.188922
      3          6           0        0.041805    1.173916   -0.256816
      4          6           0        1.286450    0.541332   -0.181046
      5          6           0       -3.632364    0.360929   -0.172103
      6         16           0       -3.731682   -1.381240    0.072853
      7          6           0       -5.492381   -1.316150    0.079346
      8          6           0       -5.937414    0.002523   -0.102460
      9          7           0       -4.878726    0.909623   -0.261587
     10          6           0       -6.386349   -2.371189    0.240698
     11          6           0       -7.751214   -2.085245    0.223608
     12          6           0       -8.201765   -0.770406    0.051330
     13          6           0       -7.306986    0.285734   -0.111525
     14          6           0       -5.109277    2.349928   -0.473641
     15          6           0       -5.164583    3.142776    0.833251
     16          6           0        2.499506    1.229230   -0.203687
     17          6           0        3.822110    0.764058   -0.127091
     18         16           0        5.094002    1.944187    0.172030
     19          6           0        6.326179    0.693711    0.140374
     20          6           0        5.740783   -0.561555   -0.088266
     21          7           0        4.346445   -0.488644   -0.256376
     22          6           0        7.702092    0.835001    0.309547
     23          6           0        8.493059   -0.310930    0.250826
     24          6           0        7.913914   -1.567173    0.028296
     25          6           0        6.538273   -1.709565   -0.142327
     26          6           0        3.573454   -1.678630   -0.651238
     27          6           0        3.111260   -2.522112    0.538719
     28          1           0       -2.480232    2.144966   -0.359543
     29          1           0       -1.101764   -0.604050   -0.075964
     30          1           0        0.014895    2.256753   -0.370616
     31          1           0        1.271155   -0.537990   -0.061902
     32          1           0       -6.030956   -3.387372    0.377927
     33          1           0       -8.467850   -2.890478    0.348789
     34          1           0       -9.267265   -0.563876    0.046694
     35          1           0       -7.675558    1.298131   -0.232690
     36          1           0       -4.320988    2.718242   -1.133807
     37          1           0       -6.043470    2.442277   -1.031819
     38          1           0       -4.221825    3.066705    1.383681
     39          1           0       -5.350379    4.199206    0.614515
     40          1           0       -5.968923    2.780771    1.480961
     41          1           0        2.426074    2.314290   -0.229676
     42          1           0        8.144449    1.810753    0.482525
     43          1           0        9.567045   -0.226720    0.381606
     44          1           0        8.544040   -2.450028   -0.009720
     45          1           0        6.108776   -2.691785   -0.303762
     46          1           0        2.735494   -1.334144   -1.259472
     47          1           0        4.216087   -2.264286   -1.313807
     48          1           0        3.963720   -2.884064    1.121248
     49          1           0        2.464779   -1.951800    1.212975
     50          1           0        2.552692   -3.391803    0.177306
 ---------------------------------------------------------------------

 SCF Done:  E(RB3LYP) =  -1796.39289069     A.U. after   14 cycles

 Excitation energies and oscillator strengths:

 Excited State   1:      Singlet-A      2.2448 eV  552.32 nm  f=2.2731  <S**2>=0.000
     103 ->104         0.70783
 This state for optimization and/or second-order correction.
 Total Energy, E(TD-HF/TD-DFT) =  -1796.31039595
 Copying the excited state density for this state as the 1-particle RhoCI density.

 Excited State   2:      Singlet-A      3.5333 eV  350.90 nm  f=0.0158  <S**2>=0.000
     101 ->104         0.12192
     102 ->104         0.63937
     103 ->105         0.26076

 Excited State   3:      Singlet-A      3.6844 eV  336.51 nm  f=0.0131  <S**2>=0.000
     101 ->104         0.62943
     103 ->105        -0.11392
     103 ->106        -0.20778
     103 ->107        -0.16874

 Excited State   4:      Singlet-A      3.7128 eV  333.94 nm  f=0.0097  <S**2>=0.000
     100 ->104         0.63212
     103 ->106        -0.19360
     103 ->107         0.21727

 Excited State   5:      Singlet-A      3.8811 eV  319.46 nm  f=0.1002  <S**2>=0.000
     100 ->104         0.11836
     101 ->104         0.23250
     103 ->105        -0.14276
     103 ->106         0.58264
     103 ->107         0.23654

 Excited State   6:      Singlet-A      3.8895 eV  318.77 nm  f=0.0143  <S**2>=0.000
     100 ->104        -0.24172
     101 ->104         0.11880
     103 ->106        -0.16270
     103 ->107         0.55031
     103 ->108         0.28159

 Excited State   7:      Singlet-A      3.9184 eV  316.42 nm  f=0.0338  <S**2>=0.000
     102 ->104         0.14700
     103 ->105        -0.36994
     103 ->107        -0.13897
     103 ->108         0.53207

 Excited State   8:      Singlet-A      3.9706 eV  312.26 nm  f=0.0279  <S**2>=0.000
     102 ->104        -0.21934
     103 ->105         0.47387
     103 ->106         0.20053
     103 ->107        -0.18270
     103 ->108         0.33652

 Excited State   9:      Singlet-A      4.0365 eV  307.16 nm  f=0.0007  <S**2>=0.000
     103 ->110         0.68114

 Excited State  10:      Singlet-A      4.2296 eV  293.14 nm  f=0.0244  <S**2>=0.000
      99 ->104         0.32891
     103 ->109         0.60754

 Excited State  11:      Singlet-A      4.3620 eV  284.24 nm  f=0.0129  <S**2>=0.000
      99 ->104         0.60389
     103 ->109        -0.31637

 Excited State  12:      Singlet-A      4.5024 eV  275.37 nm  f=0.0083  <S**2>=0.000
     103 ->111         0.66226
     103 ->112         0.15747

 Excited State  13:      Singlet-A      4.6186 eV  268.44 nm  f=0.0016  <S**2>=0.000
     103 ->111        -0.15227
     103 ->112         0.66642
     103 ->115        -0.10301

 Excited State  14:      Singlet-A      4.7682 eV  260.02 nm  f=0.0015  <S**2>=0.000
     103 ->113         0.66812
     103 ->114        -0.15728

 Excited State  15:      Singlet-A      4.8807 eV  254.03 nm  f=0.0064  <S**2>=0.000
     103 ->113         0.14851
     103 ->114         0.67309

 Excited State  16:      Singlet-A      5.0932 eV  243.43 nm  f=0.0061  <S**2>=0.000
      98 ->104         0.62198
     100 ->106        -0.10401
     100 ->107         0.11586
     102 ->106        -0.12582

 Excited State  17:      Singlet-A      5.1212 eV  242.10 nm  f=0.0394  <S**2>=0.000
      99 ->106        -0.10960
     100 ->106        -0.12010
     100 ->107         0.15568
     100 ->109        -0.10759
     101 ->106        -0.11100
     101 ->107        -0.15417
     101 ->109        -0.10716
     102 ->105         0.53233
     102 ->107         0.15116
     103 ->115        -0.11187

 Excited State  18:      Singlet-A      5.1344 eV  241.48 nm  f=0.0041  <S**2>=0.000
     102 ->105         0.10116
     103 ->115         0.62338
     103 ->116         0.20295
     103 ->122        -0.12283

 Excited State  19:      Singlet-A      5.2075 eV  238.09 nm  f=0.0059  <S**2>=0.000
     101 ->105         0.10287
     102 ->106         0.25257
     103 ->115        -0.19113
     103 ->116         0.53206
     103 ->117         0.12187

 Excited State  20:      Singlet-A      5.2276 eV  237.17 nm  f=0.0013  <S**2>=0.000
      98 ->104         0.23100
     101 ->105         0.18460
     102 ->106         0.40916
     103 ->115         0.10905
     103 ->116        -0.32993

 Excited State  21:      Singlet-A      5.2673 eV  235.39 nm  f=0.0058  <S**2>=0.000
     103 ->116        -0.11193
     103 ->117         0.24109
     103 ->118         0.49222
     103 ->119        -0.36158

 Excited State  22:      Singlet-A      5.3033 eV  233.79 nm  f=0.0016  <S**2>=0.000
      96 ->104        -0.13427
      97 ->104        -0.13813
     100 ->105        -0.19777
     101 ->105         0.10520
     102 ->105        -0.14477
     102 ->106        -0.10533
     102 ->107         0.41006
     103 ->118         0.20118
     103 ->119         0.30899
     103 ->120        -0.16914

 Excited State  23:      Singlet-A      5.3450 eV  231.96 nm  f=0.0317  <S**2>=0.000
      97 ->104         0.16739
     102 ->105         0.13239
     102 ->107        -0.33387
     103 ->118         0.37813
     103 ->119         0.36749
     103 ->120        -0.10746

 Excited State  24:      Singlet-A      5.3636 eV  231.16 nm  f=0.0037  <S**2>=0.000
      96 ->104        -0.12886
     100 ->108        -0.32333
     102 ->108         0.22012
     103 ->117         0.47396
     103 ->118        -0.11844
     103 ->119         0.13084
     103 ->120        -0.11498

 Excited State  25:      Singlet-A      5.3856 eV  230.22 nm  f=0.0009  <S**2>=0.000
     100 ->108         0.42022
     102 ->108        -0.29452
     103 ->117         0.38333
     103 ->118        -0.13951

 Excited State  26:      Singlet-A      5.4024 eV  229.50 nm  f=0.0265  <S**2>=0.000
      96 ->104         0.46449
      97 ->104        -0.31204
     100 ->106        -0.12123
     100 ->107         0.10626
     100 ->108        -0.12883
     101 ->106         0.10140
     102 ->106         0.10931
     102 ->109         0.17697
     103 ->120        -0.12969

 Excited State  27:      Singlet-A      5.4303 eV  228.32 nm  f=0.0023  <S**2>=0.000
      97 ->104        -0.21959
     101 ->110         0.19247
     102 ->110         0.14078
     103 ->119         0.20652
     103 ->120         0.53976

 Excited State  28:      Singlet-A      5.4320 eV  228.25 nm  f=0.0490  <S**2>=0.000
      96 ->104         0.32508
      97 ->104         0.40556
     101 ->110        -0.10251
     102 ->105        -0.16860
     102 ->107         0.16346
     103 ->119         0.15405
     103 ->120         0.27665

 Excited State  29:      Singlet-A      5.4510 eV  227.45 nm  f=0.0029  <S**2>=0.000
      97 ->104         0.23876
     101 ->110         0.46861
     102 ->110         0.34887
     103 ->120        -0.12862
     103 ->122        -0.12106

 Excited State  30:      Singlet-A      5.5173 eV  224.72 nm  f=0.0010  <S**2>=0.000
      99 ->108         0.13944
     100 ->108         0.40456
     102 ->108         0.50045
     103 ->121         0.18344

 Excited State  31:      Singlet-A      5.5552 eV  223.19 nm  f=0.0023  <S**2>=0.000
     101 ->105         0.11367
     102 ->108        -0.13035
     103 ->121         0.32696
     103 ->122         0.50650
     103 ->123         0.14944
     103 ->124        -0.11125

 Excited State  32:      Singlet-A      5.5626 eV  222.89 nm  f=0.0106  <S**2>=0.000
      96 ->104        -0.24045
      97 ->104         0.12066
     100 ->105         0.31858
     100 ->106        -0.13490
     101 ->105         0.35482
     101 ->106         0.19712
     101 ->107         0.13159
     102 ->109         0.22872
     103 ->121        -0.13156

 Excited State  33:      Singlet-A      5.5709 eV  222.56 nm  f=0.0083  <S**2>=0.000
     101 ->110        -0.14876
     102 ->108        -0.13404
     103 ->121         0.50818
     103 ->122        -0.36063

 Excited State  34:      Singlet-A      5.5870 eV  221.92 nm  f=0.0639  <S**2>=0.000
      96 ->104         0.11638
     100 ->105        -0.37425
     100 ->106         0.11967
     101 ->105         0.41044
     102 ->106        -0.12501
     102 ->107        -0.21478
     102 ->110        -0.17067
     102 ->111        -0.12922

 Excited State  35:      Singlet-A      5.6171 eV  220.73 nm  f=0.0768  <S**2>=0.000
      99 ->110        -0.10602
     100 ->105        -0.24578
     101 ->106         0.18889
     101 ->107         0.18599
     101 ->110        -0.30740
     102 ->106         0.19237
     102 ->110         0.38963
     103 ->122         0.11294

 Excited State  36:      Singlet-A      5.6279 eV  220.30 nm  f=0.0844  <S**2>=0.000
      96 ->104         0.10479
     100 ->105         0.24130
     100 ->107        -0.10829
     101 ->105         0.21321
     101 ->106        -0.15519
     101 ->107        -0.17762
     101 ->110        -0.26032
     102 ->106        -0.29872
     102 ->110         0.31097

 Excited State  37:      Singlet-A      5.6675 eV  218.76 nm  f=0.1275  <S**2>=0.000
      97 ->104         0.10365
     100 ->106         0.19034
     100 ->107        -0.20775
     101 ->106         0.19223
     101 ->107         0.20222
     102 ->105         0.17410
     102 ->107         0.14524
     103 ->122        -0.12339
     103 ->123         0.43104

 Excited State  38:      Singlet-A      5.7029 eV  217.41 nm  f=0.0997  <S**2>=0.000
      96 ->104        -0.12138
     100 ->105        -0.10593
     100 ->106        -0.18829
     100 ->107         0.20662
     101 ->106        -0.12379
     101 ->107        -0.13298
     102 ->105        -0.15614
     102 ->107        -0.12509
     103 ->123         0.49890
     103 ->125        -0.12790

 Excited State  39:      Singlet-A      5.7653 eV  215.05 nm  f=0.0011  <S**2>=0.000
     103 ->121         0.16843
     103 ->124         0.60884
     103 ->125         0.10097
     103 ->126         0.15683
     103 ->127        -0.18315

 Excited State  40:      Singlet-A      5.8544 eV  211.78 nm  f=0.0203  <S**2>=0.000
      95 ->104         0.14038
     100 ->106        -0.10851
     102 ->109        -0.14929
     103 ->124        -0.10909
     103 ->125         0.61445

 Excited State  41:      Singlet-A      5.8593 eV  211.60 nm  f=0.0003  <S**2>=0.000
     101 ->105         0.11986
     101 ->106        -0.46338
     101 ->107         0.48452

 Excited State  42:      Singlet-A      5.8747 eV  211.05 nm  f=0.0546  <S**2>=0.000
      95 ->104         0.11526
      99 ->107         0.14016
     100 ->106         0.15252
     100 ->107        -0.16709
     100 ->109        -0.14553
     101 ->106        -0.22330
     101 ->111        -0.11706
     102 ->106         0.12991
     102 ->109         0.46267
     103 ->125         0.18777

 Excited State  43:      Singlet-A      5.8951 eV  210.32 nm  f=0.0020  <S**2>=0.000
     100 ->106         0.50808
     100 ->107         0.47225

 Excited State  44:      Singlet-A      5.9389 eV  208.77 nm  f=0.0126  <S**2>=0.000
      99 ->105         0.11366
     100 ->109        -0.18156
     102 ->109        -0.12820
     103 ->124        -0.19589
     103 ->126         0.54356
     103 ->127        -0.15723

 Excited State  45:      Singlet-A      5.9495 eV  208.39 nm  f=0.0657  <S**2>=0.000
      99 ->106         0.27665
     100 ->107         0.13355
     100 ->109         0.29267
     100 ->111         0.14842
     101 ->107        -0.14951
     101 ->109         0.22043
     101 ->111        -0.20197
     102 ->107         0.19214
     102 ->109         0.11137
     102 ->111        -0.25428
     103 ->126         0.10199

 Excited State  46:      Singlet-A      5.9618 eV  207.97 nm  f=0.0069  <S**2>=0.000
      95 ->104        -0.11944
      99 ->105         0.26333
      99 ->107         0.13439
     100 ->109        -0.25976
     100 ->111        -0.11351
     101 ->109         0.18101
     101 ->111        -0.17708
     102 ->106         0.13243
     102 ->109        -0.22636
     102 ->111        -0.22663
     103 ->126        -0.24833

 Excited State  47:      Singlet-A      6.0050 eV  206.47 nm  f=0.0927  <S**2>=0.000
      95 ->104         0.35936
      99 ->105         0.12688
      99 ->106         0.10914
     101 ->109         0.22939
     101 ->111        -0.15867
     102 ->105         0.12813
     102 ->109        -0.16655
     102 ->111         0.39142

 Excited State  48:      Singlet-A      6.0581 eV  204.66 nm  f=0.0033  <S**2>=0.000
      90 ->104        -0.28811
      91 ->104         0.14115
      92 ->104         0.26262
      94 ->104         0.52743

 Excited State  49:      Singlet-A      6.0630 eV  204.49 nm  f=0.0026  <S**2>=0.000
     103 ->128         0.66673

 Excited State  50:      Singlet-A      6.0697 eV  204.27 nm  f=0.0051  <S**2>=0.000
     103 ->124         0.13485
     103 ->126         0.23528
     103 ->127         0.62621

 Excited State  51:      Singlet-A      6.1085 eV  202.97 nm  f=0.0219  <S**2>=0.000
      95 ->104        -0.28867
     102 ->111         0.20321
     102 ->112         0.30543
     103 ->126         0.10769
     103 ->129         0.40965
     103 ->130        -0.14977

 Excited State  52:      Singlet-A      6.1380 eV  201.99 nm  f=0.0057  <S**2>=0.000
      95 ->104         0.26463
     101 ->108         0.37763
     102 ->111        -0.15779
     102 ->112        -0.22977
     103 ->129         0.37725

 Excited State  53:      Singlet-A      6.1409 eV  201.90 nm  f=0.0017  <S**2>=0.000
      95 ->104        -0.12113
     101 ->108         0.58110
     102 ->112         0.18045
     103 ->129        -0.27075

 Excited State  54:      Singlet-A      6.1690 eV  200.98 nm  f=0.0325  <S**2>=0.000
      93 ->104        -0.13080
      95 ->104         0.27089
     102 ->111        -0.21654
     102 ->112         0.50876

 Excited State  55:      Singlet-A      6.2267 eV  199.12 nm  f=0.0195  <S**2>=0.000
      99 ->105         0.41693
      99 ->107        -0.28287
     100 ->109         0.10733
     101 ->109        -0.18278
     103 ->130        -0.30439

 Excited State  56:      Singlet-A      6.2456 eV  198.52 nm  f=0.0113  <S**2>=0.000
     101 ->109        -0.18420
     101 ->111        -0.26766
     101 ->112        -0.33692
     101 ->113         0.36981
     102 ->113         0.22365

 Excited State  57:      Singlet-A      6.2608 eV  198.03 nm  f=0.0124  <S**2>=0.000
      93 ->104         0.17326
      99 ->105         0.11071
     100 ->110         0.15578
     100 ->112         0.36376
     100 ->113         0.25573
     101 ->109        -0.14652
     101 ->111        -0.10344
     102 ->113        -0.14506
     103 ->130         0.34005

 Excited State  58:      Singlet-A      6.2685 eV  197.79 nm  f=0.0108  <S**2>=0.000
      91 ->104         0.11157
      93 ->104         0.29099
      99 ->105         0.13958
      99 ->107        -0.10092
     100 ->110        -0.11216
     100 ->112        -0.14181
     101 ->111         0.11457
     101 ->112         0.10225
     101 ->113        -0.13694
     102 ->113         0.35093
     103 ->129         0.12472
     103 ->130         0.29820

 Excited State  59:      Singlet-A      6.2780 eV  197.49 nm  f=0.0015  <S**2>=0.000
      99 ->105        -0.10242
     100 ->110         0.38424
     100 ->112         0.18168
     100 ->113         0.14289
     101 ->109         0.19592
     101 ->111         0.12694
     102 ->113         0.30860
     103 ->130        -0.16369
     103 ->131         0.21509

 Excited State  60:      Singlet-A      6.2835 eV  197.32 nm  f=0.0012  <S**2>=0.000
      93 ->104         0.43669
      99 ->105        -0.12900
      99 ->107         0.16018
     100 ->110        -0.15556
     102 ->113        -0.18722
     103 ->130        -0.19767
     103 ->131         0.31743

 Excited State  61:      Singlet-A      6.2872 eV  197.20 nm  f=0.0059  <S**2>=0.000
      93 ->104         0.14834
     100 ->110         0.52643
     100 ->112        -0.28132
     100 ->113        -0.17816
     101 ->109        -0.11551
     102 ->113        -0.14546

 Excited State  62:      Singlet-A      6.3020 eV  196.74 nm  f=0.0105  <S**2>=0.000
      89 ->104        -0.11141
      91 ->104         0.21591
      92 ->104         0.32572
      94 ->104        -0.26416
      99 ->106        -0.10336
      99 ->107        -0.23077
     101 ->109         0.22262
     101 ->111         0.11038
     101 ->112        -0.12393
     101 ->113         0.15429
     102 ->113        -0.17975

 Excited State  63:      Singlet-A      6.3057 eV  196.62 nm  f=0.0152  <S**2>=0.000
      91 ->104         0.16193
      93 ->104        -0.30453
      95 ->104        -0.10401
     101 ->109        -0.21271
     101 ->111        -0.16025
     101 ->113        -0.10050
     102 ->111         0.10480
     103 ->130         0.10425
     103 ->131         0.41454

 Excited State  64:      Singlet-A      6.3115 eV  196.44 nm  f=0.0133  <S**2>=0.000
      91 ->104        -0.19344
      92 ->104        -0.24091
      94 ->104         0.22760
      99 ->107        -0.18334
      99 ->108        -0.13148
     101 ->109         0.15783
     101 ->112        -0.15781
     101 ->113         0.17827
     102 ->113        -0.15454
     103 ->130         0.19448
     103 ->131         0.30026

 Excited State  65:      Singlet-A      6.3422 eV  195.49 nm  f=0.0203  <S**2>=0.000
      98 ->108         0.15832
      99 ->106        -0.10622
      99 ->108         0.57335
     102 ->108        -0.15883
     102 ->113        -0.13098
     102 ->114        -0.11967
     103 ->131         0.11313

 Excited State  66:      Singlet-A      6.3552 eV  195.09 nm  f=0.1972  <S**2>=0.000
      91 ->104         0.25032
      92 ->104        -0.19588
      93 ->104        -0.12049
      99 ->105         0.15339
      99 ->106        -0.27592
      99 ->107         0.26658
     100 ->109         0.32288
     100 ->111        -0.12653

 Excited State  67:      Singlet-A      6.3644 eV  194.81 nm  f=0.0729  <S**2>=0.000
      89 ->104        -0.15315
      91 ->104         0.38756
      92 ->104        -0.34806
      99 ->106         0.23748
     100 ->109        -0.20705
     100 ->111         0.13084
     101 ->111         0.10396

 Excited State  68:      Singlet-A      6.4003 eV  193.72 nm  f=0.0102  <S**2>=0.000
     102 ->114         0.13828
     103 ->129         0.11403
     103 ->132         0.60848
     103 ->135        -0.11227

 Excited State  69:      Singlet-A      6.4069 eV  193.52 nm  f=0.2736  <S**2>=0.000
      99 ->105         0.12536
      99 ->106         0.35723
      99 ->107         0.22478
     100 ->111        -0.23281
     101 ->111         0.32575
     101 ->112        -0.12389

 Excited State  70:      Singlet-A      6.4260 eV  192.94 nm  f=0.0055  <S**2>=0.000
      99 ->105         0.12673
      99 ->107         0.15119
      99 ->108         0.10815
     100 ->111         0.36255
     102 ->114         0.44236
     103 ->132        -0.17612

 Excited State  71:      Singlet-A      6.4375 eV  192.60 nm  f=0.0498  <S**2>=0.000
      99 ->105        -0.13239
      99 ->107        -0.13668
      99 ->108         0.11340
     100 ->111        -0.40518
     102 ->114         0.41810

 Excited State  72:      Singlet-A      6.4762 eV  191.45 nm  f=0.0166  <S**2>=0.000
      90 ->104         0.57387
      91 ->104         0.13773
      92 ->104         0.25164
      94 ->104         0.18879

 Excited State  73:      Singlet-A      6.4955 eV  190.88 nm  f=0.0003  <S**2>=0.000
      98 ->110        -0.17415
      99 ->110         0.61622
     102 ->110         0.14779
     102 ->114         0.12836

 Excited State  74:      Singlet-A      6.5437 eV  189.47 nm  f=0.0017  <S**2>=0.000
     102 ->114         0.11330
     103 ->133        -0.39616
     103 ->134         0.12311
     103 ->135         0.48073
     103 ->137        -0.15646

 Excited State  75:      Singlet-A      6.5616 eV  188.95 nm  f=0.0006  <S**2>=0.000
      85 ->104        -0.15171
      87 ->104         0.13991
      88 ->104        -0.10569
      89 ->104         0.41982
      90 ->104        -0.11044
      91 ->104         0.22182
     103 ->133        -0.34654
     103 ->135        -0.15446

 Excited State  76:      Singlet-A      6.5699 eV  188.71 nm  f=0.0010  <S**2>=0.000
      89 ->104         0.29716
      91 ->104         0.15112
     103 ->133         0.40397
     103 ->135         0.31930
     103 ->136        -0.12973

 Excited State  77:      Singlet-A      6.5969 eV  187.94 nm  f=0.0123  <S**2>=0.000
     101 ->112         0.25274
     101 ->113         0.22482
     101 ->114         0.45200
     101 ->115        -0.28475
     101 ->117         0.12651

 The electronic state is 1-A.
 Alpha  occ. eigenvalues --  -88.90290 -88.90099 -14.40153 -14.39818 -10.28507
 Alpha  occ. eigenvalues --  -10.28097 -10.24305 -10.24184 -10.22978 -10.22887
 Alpha  occ. eigenvalues --  -10.22262 -10.22099 -10.20380 -10.20376 -10.19586
 Alpha  occ. eigenvalues --  -10.19512 -10.19359 -10.19253 -10.19000 -10.18841
 Alpha  occ. eigenvalues --  -10.18745 -10.18647 -10.18623 -10.18542 -10.17907
 Alpha  occ. eigenvalues --  -10.16784 -10.16654  -7.98828  -7.98637  -5.95162
 Alpha  occ. eigenvalues --   -5.94980  -5.94799  -5.94615  -5.94343  -5.94137
 Alpha  occ. eigenvalues --   -1.02182  -1.02042  -0.88205  -0.88100  -0.85514
 Alpha  occ. eigenvalues --   -0.85066  -0.83173  -0.80777  -0.78383  -0.77734
 Alpha  occ. eigenvalues --   -0.77320  -0.75663  -0.75176  -0.74284  -0.71063
 Alpha  occ. eigenvalues --   -0.66954  -0.66258  -0.66110  -0.63937  -0.63036
 Alpha  occ. eigenvalues --   -0.61752  -0.60850  -0.58577  -0.57407  -0.56728
 Alpha  occ. eigenvalues --   -0.53221  -0.53118  -0.52799  -0.51789  -0.50120
 Alpha  occ. eigenvalues --   -0.49386  -0.47754  -0.47744  -0.47040  -0.46855
 Alpha  occ. eigenvalues --   -0.46442  -0.46331  -0.45579  -0.44447  -0.44220
 Alpha  occ. eigenvalues --   -0.43906  -0.42539  -0.41565  -0.40934  -0.40911
 Alpha  occ. eigenvalues --   -0.40292  -0.39842  -0.39286  -0.38607  -0.38150
 Alpha  occ. eigenvalues --   -0.37831  -0.37700  -0.37343  -0.37278  -0.36696
 Alpha  occ. eigenvalues --   -0.36197  -0.35899  -0.35826  -0.35667  -0.34551
 Alpha  occ. eigenvalues --   -0.32304  -0.32224  -0.30753  -0.27796  -0.25803
 Alpha  occ. eigenvalues --   -0.25692  -0.24716  -0.19199
 Alpha virt. eigenvalues --   -0.10409  -0.03788  -0.03327  -0.03294  -0.02195
 Alpha virt. eigenvalues --   -0.01920  -0.01696  -0.01053  -0.00039   0.00361
 Alpha virt. eigenvalues --    0.00794   0.01488   0.01797   0.02231   0.02301

 Mulliken charges:
               1
     1  C   -0.283375
     2  C   -0.068760
     3  C   -0.280097
     4  C    0.091781
     5  C    0.564449
     6  S   -0.530320
     7  C    0.431686
     8  C    0.483167
     9  N    0.143836
    10  C   -0.349423
    11  C   -0.204204
    12  C   -0.216001
    13  C   -0.324396
    14  C   -0.225247
    15  C   -0.436033
    16  C   -0.330716
    17  C    0.511564
    18  S   -0.482986
    19  C    0.536751
    20  C    0.472334
    21  N    0.156359
    22  C   -0.414522
    23  C   -0.271950
    24  C   -0.250100
    25  C   -0.341059
    26  C   -0.265934
    27  C   -0.468815
    28  H    0.141867
    29  H    0.133276
    30  H    0.115901
    31  H    0.142651
    32  H    0.152907
    33  H    0.134248
    34  H    0.133783
    35  H    0.147353
    36  H    0.154714
    37  H    0.153902
    38  H    0.148146
    39  H    0.148999
    40  H    0.148586
    41  H    0.144233
    42  H    0.153775
    43  H    0.135552
    44  H    0.133871
    45  H    0.152316
    46  H    0.158941
    47  H    0.158532
    48  H    0.151185
    49  H    0.151474
    50  H    0.155801
 Sum of Mulliken charges =   1.00000

 Dipole moment (field-independent basis, Debye):
    X=             -1.0291    Y=              0.0546    Z=             -1.0426  Tot=              1.4660
 Quadrupole moment (field-independent basis, Debye-Ang):
   XX=            -16.4464   YY=           -137.0470   ZZ=           -180.9561
   XY=            -21.5833   XZ=              1.1899   YZ=             -0.8845

 Normal termination of Gaussian 16 at Thu Nov  2 21:18:56 2023.
