 Gaussian 16, Revision C.02,
 Gaussian 16:  ES64L-G16RevC.02  7-Dec-2021

 -----------------------------------------------------------------
 # td=(nstates=150) b3lyp/6-311+g(2d,p) scrf(smd, solvent=ethanol)
 -----------------------------------------------------------------

 ---
 A-1
 ---
 Symbolic Z-matrix:
 Charge =  1 Multiplicity = 1

                         Standard orientation:
 ---------------------------------------------------------------------
 Center     Atomic      Atomic             Coordinates (Angstroms)
 Number     Number       Type             X           Y           Z
 ---------------------------------------------------------------------
      1          6           0       -1.259214    0.216698   -0.039367
      2          6           0        0.000003    0.828935   -0.000122
      3          6           0        1.259209    0.216684    0.039249
      4          7           0        2.433464    0.904848    0.145998
      5         16           0       -1.557561   -1.512152    0.053882
      6          6           0       -3.297665   -1.258824   -0.027283
      7          6           0       -3.589904    0.108866   -0.118299
      8          7           0       -2.433474    0.904863   -0.146106
      9         16           0        1.557549   -1.512171   -0.053923
     10          6           0        3.297657   -1.258850    0.027304
     11          6           0        3.589900    0.108842    0.118251
     12          6           0       -4.301571   -2.224422   -0.003624
     13          6           0       -5.624645   -1.792125   -0.066975
     14          6           0       -5.925643   -0.425687   -0.149009
     15          6           0       -4.920394    0.538274   -0.174272
     16          6           0        4.301563   -2.224450    0.003718
     17          6           0        5.624635   -1.792149    0.067066
     18          6           0        5.925635   -0.425707    0.149021
     19          6           0        4.920384    0.538258    0.174213
     20          6           0       -2.510348    2.373529   -0.257226
     21          6           0       -2.566433    3.073786    1.101522
     22          6           0        2.510339    2.373497    0.257299
     23          6           0        2.566508    3.073929   -1.101357
     24          1           0        0.000014    1.909040   -0.000214
     25          1           0       -4.060576   -3.280313    0.063971
     26          1           0       -6.427238   -2.522132   -0.049094
     27          1           0       -6.962056   -0.106514   -0.191342
     28          1           0       -5.176748    1.590213   -0.228130
     29          1           0        4.060566   -3.280345   -0.063815
     30          1           0        6.427230   -2.522156    0.049231
     31          1           0        6.962048   -0.106532    0.191339
     32          1           0        5.176733    1.590201    0.228019
     33          1           0       -1.657488    2.708489   -0.852128
     34          1           0       -3.398115    2.597174   -0.852215
     35          1           0       -3.441185    2.752064    1.674572
     36          1           0       -1.673838    2.863356    1.699082
     37          1           0       -2.634230    4.156364    0.954302
     38          1           0        1.657436    2.708379    0.852183
     39          1           0        3.398074    2.597059    0.852370
     40          1           0        3.441334    2.752344   -1.674368
     41          1           0        1.673988    2.863510   -1.699033
     42          1           0        2.634214    4.156493   -0.953990
 ---------------------------------------------------------------------

 SCF Done:  E(RB3LYP) =  -1641.53253972     A.U. after   13 cycles

 Excitation energies and oscillator strengths:

 Excited State   1:      Singlet-A      3.1397 eV  394.89 nm  f=1.2076  <S**2>=0.000
      89 -> 90         0.70472
 This state for optimization and/or second-order correction.
 Total Energy, E(TD-HF/TD-DFT) =  -1641.41715873
 Copying the excited state density for this state as the 1-particle RhoCI density.

 Excited State   2:      Singlet-A      3.7846 eV  327.60 nm  f=0.0007  <S**2>=0.000
      89 -> 91         0.70090

 Excited State   3:      Singlet-A      4.0551 eV  305.75 nm  f=0.0167  <S**2>=0.000
      88 -> 90         0.59613
      89 -> 92        -0.35889

 Excited State   4:      Singlet-A      4.1935 eV  295.65 nm  f=0.0051  <S**2>=0.000
      87 -> 90         0.63432
      89 -> 93         0.28955

 Excited State   5:      Singlet-A      4.3349 eV  286.01 nm  f=0.0459  <S**2>=0.000
      88 -> 90         0.34933
      89 -> 92         0.59385

 Excited State   6:      Singlet-A      4.4693 eV  277.41 nm  f=0.0404  <S**2>=0.000
      87 -> 90        -0.28568
      89 -> 93         0.62393

 Excited State   7:      Singlet-A      4.5062 eV  275.14 nm  f=0.0003  <S**2>=0.000
      86 -> 90         0.66812
      89 -> 94        -0.18041

 Excited State   8:      Singlet-A      4.7276 eV  262.25 nm  f=0.0848  <S**2>=0.000
      86 -> 90         0.16085
      87 -> 92        -0.11922
      89 -> 94         0.64657

 Excited State   9:      Singlet-A      4.8765 eV  254.25 nm  f=0.0018  <S**2>=0.000
      89 -> 95         0.67382

 Excited State  10:      Singlet-A      4.8970 eV  253.19 nm  f=0.0001  <S**2>=0.000
      86 -> 91         0.16493
      88 -> 91         0.56987
      89 -> 97        -0.33208

 Excited State  11:      Singlet-A      5.0314 eV  246.42 nm  f=0.0001  <S**2>=0.000
      86 -> 91        -0.15011
      88 -> 91         0.38464
      89 -> 97         0.54415
      89 -> 98        -0.13640

 Excited State  12:      Singlet-A      5.0439 eV  245.81 nm  f=0.0049  <S**2>=0.000
      89 -> 96         0.68790

 Excited State  13:      Singlet-A      5.1151 eV  242.39 nm  f=0.0075  <S**2>=0.000
      87 -> 91         0.68376
      88 -> 97         0.12125

 Excited State  14:      Singlet-A      5.2929 eV  234.25 nm  f=0.2667  <S**2>=0.000
      85 -> 90         0.51664
      86 -> 92         0.16400
      87 -> 93         0.16013
      87 -> 95        -0.14632
      88 -> 92        -0.31483
      88 -> 94        -0.20525

 Excited State  15:      Singlet-A      5.3819 eV  230.37 nm  f=0.0003  <S**2>=0.000
      86 -> 91         0.66156
      89 -> 97         0.21566

 Excited State  16:      Singlet-A      5.4735 eV  226.52 nm  f=0.0000  <S**2>=0.000
      89 -> 97         0.15718
      89 -> 98         0.66386

 Excited State  17:      Singlet-A      5.5222 eV  224.52 nm  f=0.0056  <S**2>=0.000
      89 -> 97        -0.10145
      89 ->100         0.68105

 Excited State  18:      Singlet-A      5.5243 eV  224.44 nm  f=0.0612  <S**2>=0.000
      85 -> 90        -0.25440
      86 -> 92         0.10423
      88 -> 92        -0.24650
      89 -> 99         0.56575

 Excited State  19:      Singlet-A      5.5865 eV  221.93 nm  f=0.0959  <S**2>=0.000
      86 -> 92         0.30747
      87 -> 95        -0.14804
      88 -> 92         0.51314
      88 -> 94        -0.21659
      89 -> 99         0.19071

 Excited State  20:      Singlet-A      5.6085 eV  221.06 nm  f=0.1880  <S**2>=0.000
      84 -> 90        -0.15536
      86 -> 90         0.10413
      86 -> 93         0.32054
      86 -> 95         0.13153
      87 -> 92         0.40571
      87 -> 94         0.18727
      88 -> 93        -0.21705
      88 -> 95         0.15373
      89 -> 94         0.16210

 Excited State  21:      Singlet-A      5.6245 eV  220.43 nm  f=0.0055  <S**2>=0.000
      85 -> 90        -0.34386
      86 -> 92         0.36051
      86 -> 94        -0.14330
      88 -> 92        -0.13113
      88 -> 94        -0.22545
      89 -> 99        -0.34056

 Excited State  22:      Singlet-A      5.6930 eV  217.79 nm  f=0.0526  <S**2>=0.000
      84 -> 90         0.29559
      86 -> 93         0.27156
      87 -> 94         0.24083
      88 -> 93         0.44531
      88 -> 95         0.22668

 Excited State  23:      Singlet-A      5.7310 eV  216.34 nm  f=0.0018  <S**2>=0.000
      89 ->101         0.61127
      89 ->103        -0.30941

 Excited State  24:      Singlet-A      5.7683 eV  214.94 nm  f=0.0010  <S**2>=0.000
      86 -> 93        -0.20401
      87 -> 92         0.49336
      87 -> 94        -0.13704
      88 -> 93         0.40437
      88 -> 95        -0.13519

 Excited State  25:      Singlet-A      5.8462 eV  212.08 nm  f=0.0005  <S**2>=0.000
      83 -> 90        -0.25065
      86 -> 94        -0.18262
      87 -> 93         0.58420
      88 -> 92         0.15663

 Excited State  26:      Singlet-A      5.8667 eV  211.34 nm  f=0.0095  <S**2>=0.000
      89 ->101         0.31563
      89 ->103         0.60553

 Excited State  27:      Singlet-A      5.9080 eV  209.86 nm  f=0.0000  <S**2>=0.000
      84 -> 90         0.60165
      87 -> 92         0.21802
      88 -> 93        -0.23481

 Excited State  28:      Singlet-A      5.9942 eV  206.84 nm  f=0.0009  <S**2>=0.000
      89 -> 98         0.10219
      89 ->102         0.64333
      89 ->104         0.23708

 Excited State  29:      Singlet-A      5.9944 eV  206.83 nm  f=0.2918  <S**2>=0.000
      83 -> 90         0.58230
      86 -> 92        -0.20655
      87 -> 93         0.27078
      88 -> 94        -0.15294

 Excited State  30:      Singlet-A      6.0515 eV  204.88 nm  f=0.3210  <S**2>=0.000
      83 -> 90         0.24242
      86 -> 92         0.34002
      88 -> 94         0.53633

 Excited State  31:      Singlet-A      6.0572 eV  204.69 nm  f=0.0001  <S**2>=0.000
      89 ->102        -0.25032
      89 ->104         0.63250

 Excited State  32:      Singlet-A      6.1436 eV  201.81 nm  f=0.0047  <S**2>=0.000
      87 -> 94        -0.43908
      88 -> 95         0.51637
      88 -> 96        -0.14026

 Excited State  33:      Singlet-A      6.1914 eV  200.25 nm  f=0.0131  <S**2>=0.000
      89 ->105         0.68735

 Excited State  34:      Singlet-A      6.2077 eV  199.72 nm  f=0.0005  <S**2>=0.000
      86 -> 93         0.13977
      87 -> 94        -0.22940
      87 -> 97        -0.18519
      88 -> 96         0.58841

 Excited State  35:      Singlet-A      6.2149 eV  199.50 nm  f=0.0843  <S**2>=0.000
      86 -> 92         0.18412
      86 -> 94         0.23530
      87 -> 95         0.46723
      87 -> 96        -0.15551
      88 -> 97         0.31939

 Excited State  36:      Singlet-A      6.2524 eV  198.30 nm  f=0.0272  <S**2>=0.000
      86 -> 92        -0.12474
      86 -> 94        -0.19576
      87 -> 95        -0.23654
      87 -> 96        -0.25408
      88 -> 97         0.51599
      89 ->107         0.11952

 Excited State  37:      Singlet-A      6.2667 eV  197.85 nm  f=0.0012  <S**2>=0.000
      85 -> 92         0.13555
      86 -> 93         0.46486
      87 -> 94        -0.28970
      88 -> 95        -0.29294
      88 -> 96        -0.20593

 Excited State  38:      Singlet-A      6.2667 eV  197.84 nm  f=0.0124  <S**2>=0.000
      85 -> 91         0.56093
      86 -> 97         0.21559
      89 ->106        -0.31246

 Excited State  39:      Singlet-A      6.3157 eV  196.31 nm  f=0.0057  <S**2>=0.000
      85 -> 91         0.28577
      86 -> 97         0.13382
      89 ->106         0.56116
      89 ->107        -0.22059

 Excited State  40:      Singlet-A      6.3223 eV  196.11 nm  f=0.0239  <S**2>=0.000
      89 ->106         0.24185
      89 ->107         0.63054

 Excited State  41:      Singlet-A      6.3540 eV  195.13 nm  f=0.0121  <S**2>=0.000
      82 -> 90         0.13324
      86 -> 94         0.19537
      87 -> 96         0.47723
      88 -> 97         0.23847
      88 -> 98        -0.22856
      88 ->100         0.21302

 Excited State  42:      Singlet-A      6.4061 eV  193.54 nm  f=0.2854  <S**2>=0.000
      84 -> 92         0.11632
      85 -> 90        -0.11055
      86 -> 94         0.49050
      87 -> 93         0.11366
      87 -> 95        -0.31949
      87 -> 96        -0.19444
      88 -> 98         0.12782

 Excited State  43:      Singlet-A      6.4375 eV  192.60 nm  f=0.0006  <S**2>=0.000
      87 -> 97         0.64465
      87 -> 98        -0.13200
      88 -> 91        -0.11014
      88 -> 96         0.15929

 Excited State  44:      Singlet-A      6.4588 eV  191.96 nm  f=0.0023  <S**2>=0.000
      82 -> 90         0.67731
      87 -> 96        -0.11001

 Excited State  45:      Singlet-A      6.4752 eV  191.48 nm  f=0.1572  <S**2>=0.000
      86 -> 95         0.64006

 Excited State  46:      Singlet-A      6.5219 eV  190.11 nm  f=0.0002  <S**2>=0.000
      86 -> 96        -0.12453
      89 ->108         0.63062
      89 ->109         0.23123

 Excited State  47:      Singlet-A      6.5749 eV  188.57 nm  f=0.0089  <S**2>=0.000
      86 -> 96         0.38267
      89 ->108        -0.13706
      89 ->109         0.52870
      89 ->110         0.11612

 Excited State  48:      Singlet-A      6.5798 eV  188.43 nm  f=0.0002  <S**2>=0.000
      86 -> 97        -0.20874
      89 ->109        -0.13423
      89 ->110         0.60849
      89 ->111         0.10159
      89 ->115         0.10566

 Excited State  49:      Singlet-A      6.6114 eV  187.53 nm  f=0.0000  <S**2>=0.000
      84 -> 91        -0.10679
      86 -> 96         0.53593
      89 ->108         0.22993
      89 ->109        -0.33348

 Excited State  50:      Singlet-A      6.6263 eV  187.11 nm  f=0.0006  <S**2>=0.000
      83 -> 97        -0.10084
      84 -> 91         0.58747
      87 -> 98         0.17986
      88 ->101         0.22197

 Excited State  51:      Singlet-A      6.6400 eV  186.72 nm  f=0.0014  <S**2>=0.000
      83 -> 91        -0.15225
      85 -> 91         0.11023
      86 -> 97        -0.28505
      87 -> 96         0.23193
      87 -> 99        -0.12654
      87 ->101         0.19982
      88 -> 97         0.15739
      88 -> 98         0.46635

 Excited State  52:      Singlet-A      6.6621 eV  186.10 nm  f=0.0040  <S**2>=0.000
      85 -> 91        -0.20989
      86 -> 97         0.49795
      88 -> 98         0.31354
      89 ->110         0.23072

 Excited State  53:      Singlet-A      6.6869 eV  185.41 nm  f=0.0025  <S**2>=0.000
      84 -> 91         0.27151
      86 -> 96         0.10246
      87 -> 98        -0.30202
      87 ->100         0.12569
      88 -> 99         0.45570
      88 ->101        -0.25020

 Excited State  54:      Singlet-A      6.7120 eV  184.72 nm  f=0.0036  <S**2>=0.000
      87 -> 96        -0.14324
      87 ->101        -0.16849
      88 -> 98         0.13213
      88 ->100         0.59856

 Excited State  55:      Singlet-A      6.7209 eV  184.48 nm  f=0.0025  <S**2>=0.000
      79 -> 90        -0.25366
      81 -> 90         0.62896
      85 -> 92         0.11167

 Excited State  56:      Singlet-A      6.7683 eV  183.18 nm  f=0.0017  <S**2>=0.000
      84 -> 91        -0.16021
      85 -> 92        -0.20920
      87 -> 98         0.28813
      87 ->100        -0.14797
      87 ->102        -0.12728
      88 -> 96         0.15823
      88 -> 99         0.42585
      88 ->101         0.27329

 Excited State  57:      Singlet-A      6.8018 eV  182.28 nm  f=0.0188  <S**2>=0.000
      80 -> 90        -0.15263
      83 -> 91         0.60200
      84 -> 97        -0.10468
      87 -> 99        -0.13912
      88 ->100        -0.13508

 Excited State  58:      Singlet-A      6.8107 eV  182.04 nm  f=0.0032  <S**2>=0.000
      80 -> 90         0.62400
      83 -> 91         0.14314
      87 -> 99        -0.12902
      89 ->111        -0.14962
      89 ->112        -0.15156

 Excited State  59:      Singlet-A      6.8175 eV  181.86 nm  f=0.0030  <S**2>=0.000
      80 -> 90         0.24235
      86 -> 98        -0.14999
      86 ->100         0.10926
      86 ->104         0.10056
      87 -> 99         0.12935
      89 ->111         0.12578
      89 ->112         0.56175

 Excited State  60:      Singlet-A      6.8267 eV  181.62 nm  f=0.0289  <S**2>=0.000
      85 -> 92        -0.28825
      87 -> 98         0.29251
      87 ->100         0.48129
      88 -> 95        -0.10001
      88 ->101        -0.12358

 Excited State  61:      Singlet-A      6.8297 eV  181.54 nm  f=0.0001  <S**2>=0.000
      85 -> 92         0.52437
      87 -> 94         0.10915
      87 -> 98         0.23052
      87 ->100         0.24330
      88 -> 99         0.18599

 Excited State  62:      Singlet-A      6.8342 eV  181.42 nm  f=0.0169  <S**2>=0.000
      80 -> 90         0.12150
      89 ->111         0.63494
      89 ->112        -0.16490

 Excited State  63:      Singlet-A      6.8612 eV  180.70 nm  f=0.0025  <S**2>=0.000
      83 -> 91         0.14682
      85 -> 93         0.19872
      87 -> 96         0.14328
      87 -> 99         0.53412
      88 ->102        -0.16911
      88 ->104        -0.17053
      89 ->112        -0.15850

 Excited State  64:      Singlet-A      6.9254 eV  179.03 nm  f=0.0081  <S**2>=0.000
      76 -> 90        -0.22297
      78 -> 90         0.29385
      79 -> 90         0.49147
      81 -> 90         0.16727
      89 ->113         0.15145
      89 ->114        -0.16129

 Excited State  65:      Singlet-A      6.9263 eV  179.01 nm  f=0.2036  <S**2>=0.000
      84 -> 92         0.11823
      84 -> 94         0.11714
      85 -> 93         0.59728
      87 -> 99        -0.15238

 Excited State  66:      Singlet-A      6.9434 eV  178.56 nm  f=0.0006  <S**2>=0.000
      76 -> 90         0.20610
      78 -> 90         0.60849
      79 -> 90        -0.18572

 Excited State  67:      Singlet-A      6.9646 eV  178.02 nm  f=0.0180  <S**2>=0.000
      85 -> 96        -0.10347
      86 -> 97         0.12553
      86 -> 98         0.56045
      86 ->100        -0.19041
      89 ->112         0.22103
      89 ->115         0.15293

 Excited State  68:      Singlet-A      6.9972 eV  177.19 nm  f=0.0001  <S**2>=0.000
      76 -> 90         0.31150
      88 ->103        -0.12204
      89 ->113         0.55757
      89 ->114        -0.16293

 Excited State  69:      Singlet-A      7.0168 eV  176.70 nm  f=0.0049  <S**2>=0.000
      76 -> 90         0.18930
      87 -> 98        -0.25962
      87 ->100         0.27763
      87 ->104         0.14070
      88 ->101         0.40717
      88 ->103        -0.15824
      89 ->113        -0.12207
      89 ->114        -0.16006

 Excited State  70:      Singlet-A      7.0236 eV  176.53 nm  f=0.0023  <S**2>=0.000
      76 -> 90        -0.17901
      79 -> 90        -0.19384
      87 -> 98        -0.11601
      87 ->100         0.12115
      87 ->104         0.14985
      88 ->101         0.22088
      88 ->103         0.39723
      89 ->113         0.28986
      89 ->114         0.13979

 Excited State  71:      Singlet-A      7.0305 eV  176.35 nm  f=0.0035  <S**2>=0.000
      87 ->101         0.42907
      87 ->103         0.10471
      88 -> 98        -0.14374
      88 ->100         0.14390
      88 ->102        -0.24852
      88 ->104         0.29145
      89 ->115         0.24917

 Excited State  72:      Singlet-A      7.0450 eV  175.99 nm  f=0.0204  <S**2>=0.000
      86 -> 98         0.30158
      86 ->100         0.44896
      89 ->115        -0.37138

 Excited State  73:      Singlet-A      7.0532 eV  175.78 nm  f=0.0163  <S**2>=0.000
      86 ->100         0.42213
      87 ->101        -0.16230
      89 ->115         0.46697

 Excited State  74:      Singlet-A      7.0577 eV  175.67 nm  f=0.0073  <S**2>=0.000
      76 -> 90        -0.10204
      79 -> 90         0.11442
      85 -> 94        -0.12737
      86 -> 99        -0.17242
      88 ->103        -0.35964
      89 ->113         0.17633
      89 ->114         0.47668

 Excited State  75:      Singlet-A      7.0800 eV  175.12 nm  f=0.0001  <S**2>=0.000
      76 -> 90        -0.29712
      79 -> 90        -0.14815
      85 -> 94         0.10791
      86 -> 99         0.50051
      88 ->103        -0.26554

 Excited State  76:      Singlet-A      7.0878 eV  174.93 nm  f=0.0118  <S**2>=0.000
      76 -> 90         0.26942
      79 -> 90         0.17680
      81 -> 90         0.10344
      83 -> 92        -0.15856
      84 -> 93        -0.14881
      86 -> 99         0.36338
      88 ->103         0.21370
      89 ->114         0.34485

 Excited State  77:      Singlet-A      7.1331 eV  173.81 nm  f=0.0104  <S**2>=0.000
      77 -> 90         0.50540
      84 -> 92         0.19138
      87 ->101        -0.10292
      87 ->103         0.32874
      89 ->116        -0.13529

 Excited State  78:      Singlet-A      7.1348 eV  173.77 nm  f=0.0149  <S**2>=0.000
      79 -> 90        -0.10816
      83 -> 92        -0.25203
      84 -> 93        -0.21350
      85 -> 94         0.50694
      86 -> 99        -0.23108
      86 ->101         0.10828
      89 ->114         0.11982

 Excited State  79:      Singlet-A      7.1468 eV  173.48 nm  f=0.0663  <S**2>=0.000
      77 -> 90        -0.33773
      82 -> 91         0.13980
      83 -> 93         0.18837
      84 -> 92         0.44066
      85 -> 95         0.23469
      86 -> 94        -0.10690
      88 ->102        -0.10240

 Excited State  80:      Singlet-A      7.1744 eV  172.82 nm  f=0.0140  <S**2>=0.000
      77 -> 90        -0.32453
      84 -> 92        -0.13373
      87 ->101        -0.14508
      87 ->103         0.46290
      88 ->102         0.13224
      88 ->104         0.19692
      88 ->105         0.13084

 Excited State  81:      Singlet-A      7.1767 eV  172.76 nm  f=0.0241  <S**2>=0.000
      84 -> 92         0.12827
      87 -> 99         0.25806
      87 ->101         0.20923
      87 ->103        -0.12945
      87 ->106        -0.13202
      88 ->102         0.50273
      88 ->104         0.18984
      89 ->116         0.11050

 Excited State  82:      Singlet-A      7.1965 eV  172.28 nm  f=0.0000  <S**2>=0.000
      86 ->101         0.55429
      86 ->103        -0.22914
      87 ->102         0.12351
      89 ->120         0.18077

 Excited State  83:      Singlet-A      7.2080 eV  172.01 nm  f=0.0004  <S**2>=0.000
      87 ->103         0.16565
      89 ->116         0.65528

 Excited State  84:      Singlet-A      7.2175 eV  171.78 nm  f=0.0018  <S**2>=0.000
      86 ->101        -0.21625
      86 ->103        -0.28452
      87 ->102        -0.24772
      88 ->106         0.16657
      89 ->117         0.18166
      89 ->119        -0.24943
      89 ->120         0.33137

 Excited State  85:      Singlet-A      7.2444 eV  171.14 nm  f=0.0041  <S**2>=0.000
      86 ->101        -0.27515
      87 ->102         0.42190
      87 ->104         0.14143
      88 -> 99         0.10750
      88 ->106        -0.28958
      89 ->117         0.23212
      89 ->119        -0.12151
      89 ->120         0.11098

 Excited State  86:      Singlet-A      7.2741 eV  170.45 nm  f=0.0111  <S**2>=0.000
      87 -> 99        -0.10497
      87 ->106         0.15764
      87 ->107         0.11574
      88 ->104        -0.27050
      88 ->105         0.56658

 Excited State  87:      Singlet-A      7.2800 eV  170.31 nm  f=0.0190  <S**2>=0.000
      86 ->103         0.11398
      87 ->102        -0.11970
      89 ->117         0.61104
      89 ->119         0.10038
      89 ->120        -0.20469

 Excited State  88:      Singlet-A      7.3263 eV  169.23 nm  f=0.0047  <S**2>=0.000
      87 ->101         0.15995
      87 ->103         0.12060
      88 ->104        -0.22767
      88 ->105        -0.17492
      89 ->115        -0.11015
      89 ->118         0.53899
      89 ->121        -0.13709

 Excited State  89:      Singlet-A      7.3322 eV  169.09 nm  f=0.0252  <S**2>=0.000
      75 -> 90         0.65333

 Excited State  90:      Singlet-A      7.3351 eV  169.03 nm  f=0.0010  <S**2>=0.000
      87 ->101        -0.27522
      87 ->103        -0.27250
      87 ->106         0.12810
      88 ->102        -0.10492
      88 ->104         0.35152
      88 ->105         0.14086
      89 ->118         0.34008
      89 ->121        -0.11103

 Excited State  91:      Singlet-A      7.3521 eV  168.64 nm  f=0.2016  <S**2>=0.000
      75 -> 90         0.17019
      83 -> 92        -0.18060
      84 -> 93        -0.12183
      85 -> 94        -0.15381
      86 ->103        -0.17393
      87 ->105         0.33743
      87 ->108         0.12881
      88 ->106         0.23761
      88 ->107         0.25066
      89 ->119         0.17938

 Excited State  92:      Singlet-A      7.3752 eV  168.11 nm  f=0.0766  <S**2>=0.000
      83 -> 92         0.12962
      86 ->103        -0.22441
      87 ->104         0.49718
      88 ->101        -0.15043
      88 ->107        -0.12552
      88 ->112        -0.10690
      89 ->119         0.19368

 Excited State  93:      Singlet-A      7.3901 eV  167.77 nm  f=0.2728  <S**2>=0.000
      83 -> 92         0.26373

 The electronic state is 1-A.
 Alpha  occ. eigenvalues --  -88.90962 -88.90962 -14.40317 -14.40316 -10.29304
 Alpha  occ. eigenvalues --  -10.29302 -10.24535 -10.24535 -10.23229 -10.23229
 Alpha  occ. eigenvalues --  -10.22400 -10.22400 -10.20149 -10.19825 -10.19825
 Alpha  occ. eigenvalues --  -10.19513 -10.19513 -10.18993 -10.18992 -10.18762
 Alpha  occ. eigenvalues --  -10.18762 -10.16846 -10.16846  -7.99502  -7.99501
 Alpha  occ. eigenvalues --   -5.95841  -5.95841  -5.95468  -5.95468  -5.95011
 Alpha  occ. eigenvalues --   -5.95011  -1.02757  -1.02416  -0.88553  -0.88420
 Alpha  occ. eigenvalues --   -0.86447  -0.84346  -0.81214  -0.78325  -0.77909
 Alpha  occ. eigenvalues --   -0.76903  -0.75654  -0.74931  -0.72547  -0.66815
 Alpha  occ. eigenvalues --   -0.66508  -0.66303  -0.63897  -0.61973  -0.61906
 Alpha  occ. eigenvalues --   -0.59751  -0.57419  -0.54104  -0.53524  -0.53357
 Alpha  occ. eigenvalues --   -0.51549  -0.50690  -0.48551  -0.48480  -0.47813
 Alpha  occ. eigenvalues --   -0.46839  -0.46642  -0.46423  -0.46376  -0.44375
 Alpha  occ. eigenvalues --   -0.44103  -0.44026  -0.42723  -0.41186  -0.40994
 Alpha  occ. eigenvalues --   -0.40273  -0.39909  -0.38990  -0.38535  -0.38233
 Alpha  occ. eigenvalues --   -0.37819  -0.37580  -0.36847  -0.36469  -0.36281
 Alpha  occ. eigenvalues --   -0.35809  -0.35389  -0.32932  -0.32398  -0.30580
 Alpha  occ. eigenvalues --   -0.26946  -0.26285  -0.25784  -0.21559
 Alpha virt. eigenvalues --   -0.08618  -0.04414  -0.03832  -0.03220  -0.02368
 Alpha virt. eigenvalues --   -0.01684  -0.00467  -0.00144   0.00801   0.01007
 Alpha virt. eigenvalues --    0.01072   0.01614   0.02470   0.02522   0.02856

 Mulliken charges:
               1
     1  C    0.426084
     2  C   -0.407728
     3  C    0.426006
     4  N    0.166111
     5  S   -0.549454
     6  C    0.557198
     7  C    0.486566
     8  N    0.166068
     9  S   -0.549463
    10  C    0.557234
    11  C    0.486505
    12  C   -0.368781
    13  C   -0.236389
    14  C   -0.221788
    15  C   -0.321633
    16  C   -0.368712
    17  C   -0.236400
    18  C   -0.221823
    19  C   -0.321583
    20  C   -0.218091
    21  C   -0.444072
    22  C   -0.218102
    23  C   -0.444066
    24  H    0.166503
    25  H    0.155042
    26  H    0.136058
    27  H    0.135756
    28  H    0.149071
    29  H    0.155042
    30  H    0.136059
    31  H    0.135756
    32  H    0.149075
    33  H    0.157559
    34  H    0.157055
    35  H    0.151104
    36  H    0.151357
    37  H    0.151901
    38  H    0.157559
    39  H    0.157055
    40  H    0.151104
    41  H    0.151358
    42  H    0.151900
 Sum of Mulliken charges =   1.00000

 Dipole moment (field-independent basis, Debye):
    X=              0.0001    Y=              5.3657    Z=              0.0001  Tot=              5.3657
 Quadrupole moment (field-independent basis, Debye-Ang):
   XX=            -71.0035   YY=           -110.0988   ZZ=           -154.8490
   XY=             -0.0003   XZ=              2.1521   YZ=             -0.0005

 Normal termination of Gaussian 16 at Thu Nov  2 20:52:11 2023.
