 Gaussian 16, Revision C.02,
 Gaussian 16:  ES64L-G16RevC.02  7-Dec-2021

 -------------------------------------------------------------
 # td=(nstates=60) b3lyp/6-31g(d,p) scrf(smd, solvent=ethanol)
 -------------------------------------------------------------

 ---
 A-2
 ---
 Symbolic Z-matrix:
 Charge =  1 Multiplicity = 1

                         Standard orientation:
 ---------------------------------------------------------------------
 Center     Atomic      Atomic             Coordinates (Angstroms)
 Number     Number       Type             X           Y           Z
 ---------------------------------------------------------------------
      1          6           0        1.185932    1.124188    0.259065
      2          6           0       -0.064042    0.518894    0.184736
      3          6           0       -1.255062    1.232433    0.206071
      4          6           0       -2.576908    0.775971    0.134368
      5          6           0        2.392634    0.431471    0.171283
      6         16           0       -3.827667    1.970009   -0.187075
      7          6           0       -5.077877    0.744792   -0.134775
      8          6           0       -4.509195   -0.508640    0.113846
      9          7           0       -3.118372   -0.458179    0.279721
     10         16           0        2.505198   -1.300121   -0.125106
     11          6           0        4.260315   -1.225762   -0.102553
     12          6           0        4.688784    0.087010    0.119416
     13          7           0        3.627512    0.981655    0.287411
     14          6           0        5.159317   -2.267461   -0.279503
     15          6           0        6.517913   -1.973596   -0.237257
     16          6           0        6.953940   -0.663841   -0.025333
     17          6           0        6.051566    0.378213    0.153458
     18          6           0       -6.446804    0.904176   -0.304215
     19          6           0       -7.251229   -0.226106   -0.226408
     20          6           0       -6.689747   -1.482485    0.014868
     21          6           0       -5.320051   -1.640504    0.186250
     22          6           0        3.847144    2.415669    0.554580
     23          6           0        3.911762    3.249637   -0.717632
     24          6           0       -2.369369   -1.660308    0.692423
     25          6           0       -1.918854   -2.522991   -0.479110
     26          1           0        1.228852    2.199196    0.376562
     27          1           0       -0.096636   -0.556945    0.072235
     28          1           0       -1.165193    2.314370    0.224199
     29          1           0        4.813961   -3.279951   -0.448352
     30          1           0        7.240415   -2.768718   -0.373960
     31          1           0        8.015538   -0.449707   -0.002068
     32          1           0        6.406822    1.388085    0.306065
     33          1           0       -6.875736    1.880738   -0.491225
     34          1           0       -8.321880   -0.129159   -0.357431
     35          1           0       -7.330326   -2.354283    0.067360
     36          1           0       -4.901973   -2.621689    0.363736
     37          1           0        3.048585    2.754296    1.212168
     38          1           0        4.772710    2.494849    1.122044
     39          1           0        4.082538    4.295496   -0.452515
     40          1           0        4.728911    2.924468   -1.364544
     41          1           0        2.978199    3.187215   -1.279982
     42          1           0       -1.531667   -1.329317    1.302601
     43          1           0       -3.027666   -2.224702    1.351768
     44          1           0       -1.276100   -1.972556   -1.168349
     45          1           0       -1.359149   -3.379171   -0.096017
     46          1           0       -2.775672   -2.899604   -1.040801
 ---------------------------------------------------------------------

 SCF Done:  E(RB3LYP) =  -1718.68314673     A.U. after   13 cycles

 Excitation energies and oscillator strengths:

 Excited State   1:      Singlet-A      2.6271 eV  471.94 nm  f=1.6945  <S**2>=0.000
      96 -> 97         0.70749
 This state for optimization and/or second-order correction.
 Total Energy, E(TD-HF/TD-DFT) =  -1718.58660120
 Copying the excited state density for this state as the 1-particle RhoCI density.

 Excited State   2:      Singlet-A      3.8728 eV  320.14 nm  f=0.0426  <S**2>=0.000
      95 -> 97         0.67411
      96 -> 99        -0.10605

 Excited State   3:      Singlet-A      3.9219 eV  316.14 nm  f=0.0209  <S**2>=0.000
      93 -> 97        -0.37983
      94 -> 97         0.56298
      96 -> 99         0.12675

 Excited State   4:      Singlet-A      4.0451 eV  306.50 nm  f=0.0072  <S**2>=0.000
      93 -> 97         0.54143
      94 -> 97         0.36299
      95 -> 97         0.12369
      96 -> 98         0.19862
      96 ->100        -0.10152

 Excited State   5:      Singlet-A      4.2063 eV  294.76 nm  f=0.0020  <S**2>=0.000
      96 -> 98         0.13647
      96 ->100         0.17014
      96 ->101         0.65485

 Excited State   6:      Singlet-A      4.3252 eV  286.65 nm  f=0.0392  <S**2>=0.000
      93 -> 97        -0.12271
      94 -> 97        -0.10225
      95 -> 97         0.11773
      96 -> 98         0.38772
      96 -> 99         0.49028
      96 ->100         0.18949

 Excited State   7:      Singlet-A      4.3312 eV  286.26 nm  f=0.0556  <S**2>=0.000
      93 -> 97        -0.15214
      96 -> 98         0.46141
      96 -> 99        -0.44545
      96 ->101        -0.18215

 Excited State   8:      Singlet-A      4.3658 eV  283.99 nm  f=0.0031  <S**2>=0.000
      96 ->100        -0.18964
      96 ->102         0.63451
      96 ->103         0.20570

 Excited State   9:      Singlet-A      4.5019 eV  275.40 nm  f=0.0322  <S**2>=0.000
      94 -> 97         0.12593
      96 -> 98        -0.19824
      96 ->100         0.59904
      96 ->101        -0.14153
      96 ->102         0.12962

 Excited State  10:      Singlet-A      4.7022 eV  263.68 nm  f=0.0225  <S**2>=0.000
      92 -> 97        -0.46682
      96 ->102        -0.16321
      96 ->103         0.49325

 Excited State  11:      Singlet-A      4.8398 eV  256.17 nm  f=0.0378  <S**2>=0.000
      92 -> 97         0.50426
      96 ->102        -0.14547
      96 ->103         0.42140

 Excited State  12:      Singlet-A      5.3619 eV  231.23 nm  f=0.0249  <S**2>=0.000
      89 -> 97         0.16298
      96 ->104         0.66787

 Excited State  13:      Singlet-A      5.5568 eV  223.12 nm  f=0.0781  <S**2>=0.000
      90 -> 97         0.13209
      92 -> 99        -0.11775
      93 -> 98         0.35953
      93 ->100         0.16420
      94 -> 98         0.20704
      94 -> 99         0.17753
      94 ->100        -0.23048
      94 ->101        -0.10647
      94 ->103        -0.11336
      95 -> 98         0.18434
      95 ->100        -0.22670

 Excited State  14:      Singlet-A      5.5870 eV  221.92 nm  f=0.0350  <S**2>=0.000
      91 -> 97         0.44143
      92 -> 98         0.11445
      93 -> 99        -0.28903
      94 -> 99        -0.12867
      94 ->100        -0.19838
      94 ->101        -0.15270
      95 ->100         0.18728
      95 ->102         0.11228
      95 ->103        -0.13384

 Excited State  15:      Singlet-A      5.6141 eV  220.85 nm  f=0.0121  <S**2>=0.000
      91 -> 97         0.18901
      93 ->101        -0.31932
      93 ->102         0.11900
      94 ->101         0.47545
      94 ->102        -0.16877
      94 ->103        -0.15202
      95 ->101         0.12553

 Excited State  16:      Singlet-A      5.6503 eV  219.43 nm  f=0.0037  <S**2>=0.000
      91 -> 97         0.35426
      92 -> 98        -0.10271
      93 -> 99         0.25178
      94 -> 99         0.14891
      94 ->100         0.18117
      94 ->101        -0.12407
      95 -> 98         0.12688
      95 -> 99         0.10661
      95 ->100        -0.11756
      95 ->101         0.20437
      95 ->102         0.21046
      95 ->103         0.24650

 Excited State  17:      Singlet-A      5.6590 eV  219.09 nm  f=0.0069  <S**2>=0.000
      91 -> 97        -0.29343
      93 -> 99        -0.12407
      95 ->101         0.30475
      95 ->102         0.46623

 Excited State  18:      Singlet-A      5.6765 eV  218.42 nm  f=0.0451  <S**2>=0.000
      90 -> 97         0.61352
      93 ->100        -0.15286
      94 -> 98        -0.17922

 Excited State  19:      Singlet-A      5.8828 eV  210.76 nm  f=0.0083  <S**2>=0.000
      92 ->102        -0.11885
      93 ->100         0.19357
      93 ->101         0.48821
      94 ->100         0.12049
      94 ->101         0.27638
      95 ->101         0.19042

 Excited State  20:      Singlet-A      5.9158 eV  209.58 nm  f=0.0422  <S**2>=0.000
      89 -> 97         0.22607
      90 -> 97         0.15468
      91 -> 97        -0.10610
      93 -> 98        -0.20656
      93 ->100         0.24891
      93 ->101        -0.22556
      94 -> 99        -0.14034
      94 ->100         0.10927
      94 ->101        -0.13364
      95 -> 98         0.33056
      95 -> 99         0.19361
      95 ->101        -0.10633

 Excited State  21:      Singlet-A      5.9397 eV  208.74 nm  f=0.0205  <S**2>=0.000
      89 -> 97         0.58126
      94 -> 98         0.12937
      95 -> 98        -0.21202
      95 -> 99        -0.21604
      96 ->104        -0.10547

 Excited State  22:      Singlet-A      5.9611 eV  207.99 nm  f=0.0252  <S**2>=0.000
      89 -> 97        -0.16756
      90 -> 97         0.17279
      91 -> 97         0.16405
      93 -> 98        -0.21215
      93 ->100         0.13930
      93 ->102        -0.10311
      93 ->103         0.11995
      94 -> 98         0.40455
      94 ->103         0.10291
      95 -> 98        -0.15966
      95 -> 99        -0.22685

 Excited State  23:      Singlet-A      6.0183 eV  206.01 nm  f=0.0063  <S**2>=0.000
      92 ->101        -0.18675
      93 ->102         0.44785
      93 ->103         0.16307
      94 ->102         0.36772
      94 ->103         0.13990
      95 ->102         0.19104

 Excited State  24:      Singlet-A      6.0673 eV  204.35 nm  f=0.0141  <S**2>=0.000
      93 -> 98         0.12623
      94 -> 98         0.18878
      95 -> 98        -0.40275
      95 -> 99         0.50239

 Excited State  25:      Singlet-A      6.1123 eV  202.84 nm  f=0.0238  <S**2>=0.000
      93 -> 98        -0.30222
      93 -> 99        -0.31328
      93 ->100        -0.14815
      94 -> 98         0.16357
      94 -> 99         0.49334

 Excited State  26:      Singlet-A      6.1381 eV  201.99 nm  f=0.0089  <S**2>=0.000
      96 ->105         0.67598

 Excited State  27:      Singlet-A      6.1563 eV  201.39 nm  f=0.1355  <S**2>=0.000
      93 -> 98         0.19905
      93 -> 99         0.12543
      94 -> 99         0.19475
      95 ->100         0.58125
      95 ->103         0.12049
      95 ->104         0.11551

 Excited State  28:      Singlet-A      6.1981 eV  200.03 nm  f=0.1534  <S**2>=0.000
      93 -> 98         0.20333
      93 -> 99        -0.28005
      93 ->100        -0.11522
      94 ->100         0.52194
      94 ->104         0.11104
      95 -> 99        -0.12377

 Excited State  29:      Singlet-A      6.2642 eV  197.92 nm  f=0.1714  <S**2>=0.000
      93 ->100         0.47596
      93 ->104         0.11291
      94 -> 98        -0.24483
      94 -> 99         0.19934
      94 ->100         0.12840
      95 -> 98        -0.20346
      95 -> 99        -0.13976

 Excited State  30:      Singlet-A      6.3176 eV  196.25 nm  f=0.0143  <S**2>=0.000
      93 ->101        -0.15809
      93 ->102         0.11770
      94 ->101        -0.19866
      94 ->102         0.13404
      95 ->101         0.51684
      95 ->102        -0.32351
      95 ->103        -0.11081

 Excited State  31:      Singlet-A      6.3285 eV  195.91 nm  f=0.0006  <S**2>=0.000
      83 -> 97         0.11286
      84 -> 97         0.21405
      85 -> 97        -0.12576
      86 -> 97        -0.17798
      88 -> 97         0.59986

 Excited State  32:      Singlet-A      6.3947 eV  193.88 nm  f=0.0018  <S**2>=0.000
      93 ->101        -0.16924
      93 ->102        -0.40915
      94 ->101         0.18504
      94 ->102         0.46176
      95 ->103        -0.11395

 Excited State  33:      Singlet-A      6.4096 eV  193.44 nm  f=0.0963  <S**2>=0.000
      92 -> 98        -0.18753
      92 -> 99        -0.12322
      93 -> 99        -0.26474
      93 ->103        -0.14704
      94 -> 98        -0.11916
      94 -> 99        -0.14874
      94 ->102         0.10521
      94 ->103         0.10983
      95 ->102        -0.11770
      95 ->103         0.46950

 Excited State  34:      Singlet-A      6.4415 eV  192.48 nm  f=0.1061  <S**2>=0.000
      87 -> 97        -0.12724
      92 -> 98        -0.11896
      92 -> 99         0.22965
      93 -> 98         0.20271
      93 ->103        -0.25301
      94 -> 98         0.13161
      94 ->103         0.45045
      95 -> 98         0.10700
      95 ->103        -0.12750

 Excited State  35:      Singlet-A      6.4792 eV  191.36 nm  f=0.0045  <S**2>=0.000
      87 -> 97         0.65304
      94 ->103         0.12162
      96 ->106        -0.12564

 Excited State  36:      Singlet-A      6.5228 eV  190.08 nm  f=0.0181  <S**2>=0.000
      86 -> 97        -0.14409
      92 -> 98         0.10525
      93 ->103         0.23340
      96 ->106         0.54637
      96 ->107         0.18064

 Excited State  37:      Singlet-A      6.5506 eV  189.27 nm  f=0.0355  <S**2>=0.000
      85 -> 97        -0.14760
      86 -> 97        -0.12634
      87 -> 97        -0.17899
      93 ->102        -0.14637
      93 ->103         0.41398
      94 ->103         0.23114
      96 ->106        -0.30028
      96 ->107        -0.11006

 Excited State  38:      Singlet-A      6.5623 eV  188.93 nm  f=0.0046  <S**2>=0.000
      85 -> 97         0.20403
      86 -> 97         0.53614
      88 -> 97         0.26049
      93 ->103         0.18500

 Excited State  39:      Singlet-A      6.6467 eV  186.53 nm  f=0.0005  <S**2>=0.000
      85 -> 97         0.60371
      86 -> 97        -0.29328

 Excited State  40:      Singlet-A      6.7093 eV  184.80 nm  f=0.0016  <S**2>=0.000
      81 -> 97         0.13104
      83 -> 97         0.25204
      84 -> 97         0.52284
      85 -> 97         0.10150
      86 -> 97         0.18124
      88 -> 97        -0.19536
      96 ->107        -0.16271

 Excited State  41:      Singlet-A      6.7318 eV  184.18 nm  f=0.1014  <S**2>=0.000
      84 -> 97         0.10967
      92 -> 99        -0.14164
      92 ->101        -0.21909
      94 ->104         0.12551
      95 ->103        -0.10410
      95 ->104         0.26202
      96 ->106        -0.15915
      96 ->107         0.45984

 Excited State  42:      Singlet-A      6.7667 eV  183.23 nm  f=0.0806  <S**2>=0.000
      83 -> 97        -0.20137
      92 -> 99        -0.28804
      92 ->101         0.33622
      94 ->103         0.18496
      94 ->104         0.18776
      95 ->104         0.31174
      96 ->107        -0.12389

 Excited State  43:      Singlet-A      6.7911 eV  182.57 nm  f=0.0135  <S**2>=0.000
      92 -> 98         0.36426
      92 ->101         0.23386
      93 ->102         0.10379
      93 ->103        -0.12114
      94 ->104         0.20002
      95 ->103         0.19783
      95 ->104        -0.27314
      96 ->107         0.21986

 Excited State  44:      Singlet-A      6.7957 eV  182.45 nm  f=0.0179  <S**2>=0.000
      83 -> 97         0.14857
      92 -> 98        -0.22422
      92 ->101         0.42488
      93 ->103         0.15487
      94 ->104        -0.25243
      96 ->107         0.29119

 Excited State  45:      Singlet-A      6.8676 eV  180.54 nm  f=0.0509  <S**2>=0.000
      82 -> 97         0.10476
      83 -> 97        -0.30611
      84 -> 97         0.15127
      92 -> 99         0.23427
      93 ->104         0.45005
      94 ->104         0.19321

 Excited State  46:      Singlet-A      6.9123 eV  179.37 nm  f=0.0281  <S**2>=0.000
      82 -> 97         0.21513
      83 -> 97        -0.10682
      92 -> 98         0.14890
      92 -> 99         0.15857
      92 ->100        -0.21207
      92 ->102         0.31755
      92 ->103         0.11706
      94 ->104        -0.19672
      95 ->104         0.22516
      96 ->108        -0.27102

 Excited State  47:      Singlet-A      6.9263 eV  179.01 nm  f=0.0352  <S**2>=0.000
      92 -> 98        -0.12591
      92 -> 99        -0.15223
      92 ->102         0.48799
      92 ->103         0.14588
      95 ->104        -0.18931
      96 ->108         0.31250

 Excited State  48:      Singlet-A      6.9378 eV  178.71 nm  f=0.1093  <S**2>=0.000
      79 -> 97        -0.12674
      80 -> 97         0.22974
      82 -> 97         0.45094
      92 -> 99        -0.24572
      92 ->100        -0.11915
      92 ->102        -0.17891
      95 ->104        -0.23042

 Excited State  49:      Singlet-A      6.9409 eV  178.63 nm  f=0.1870  <S**2>=0.000
      82 -> 97        -0.28893
      92 -> 99        -0.22521
      92 ->100        -0.27290
      93 ->104         0.30580
      94 ->104        -0.12543
      95 ->104        -0.21999
      96 ->108        -0.25766

 Excited State  50:      Singlet-A      6.9501 eV  178.39 nm  f=0.0650  <S**2>=0.000
      92 -> 98         0.25317
      92 -> 99        -0.13926
      92 ->100         0.39734
      92 ->101        -0.14156
      93 ->104         0.21120
      94 ->104        -0.35673

 Excited State  51:      Singlet-A      7.0065 eV  176.96 nm  f=0.0112  <S**2>=0.000
      91 -> 99        -0.11311
      92 -> 98         0.16102
      92 ->100        -0.30949
      92 ->102        -0.12132
      94 ->104        -0.18501
      96 ->108         0.46984

 Excited State  52:      Singlet-A      7.0368 eV  176.19 nm  f=0.0131  <S**2>=0.000
      78 -> 97        -0.12603
      79 -> 97        -0.12233
      80 -> 97         0.41719
      82 -> 97        -0.33411
      83 -> 97        -0.25680
      85 -> 97         0.11456
      93 ->104        -0.20892

 Excited State  53:      Singlet-A      7.0799 eV  175.12 nm  f=0.0047  <S**2>=0.000
      78 -> 97        -0.10199
      80 -> 97         0.15108
      81 -> 97         0.57643
      84 -> 97        -0.25749
      93 ->104         0.13597

 Excited State  54:      Singlet-A      7.1012 eV  174.60 nm  f=0.0140  <S**2>=0.000
      79 -> 97        -0.10077
      80 -> 97         0.30725
      81 -> 97        -0.33245
      83 -> 97         0.35707
      84 -> 97        -0.18205
      93 ->104         0.16428
      94 ->104         0.14042

 Excited State  55:      Singlet-A      7.2168 eV  171.80 nm  f=0.0227  <S**2>=0.000
      90 -> 99         0.18054
      91 -> 98        -0.14500
      91 -> 99        -0.12303
      92 -> 99        -0.10807
      92 ->102        -0.18937
      92 ->103         0.58206

 Excited State  56:      Singlet-A      7.2770 eV  170.38 nm  f=0.0016  <S**2>=0.000
      90 ->100         0.10567
      90 ->101         0.57260
      90 ->102        -0.23712
      91 ->101         0.21787

 Excited State  57:      Singlet-A      7.3351 eV  169.03 nm  f=0.0003  <S**2>=0.000
      78 -> 97        -0.13897
      79 -> 97        -0.10840
      89 ->102         0.10491
      90 ->101        -0.13098
      90 ->102        -0.17685
      91 ->101         0.32061
      91 ->102         0.46214
      91 ->103         0.16449

 Excited State  58:      Singlet-A      7.3446 eV  168.81 nm  f=0.0008  <S**2>=0.000
      77 -> 97        -0.11474
      78 -> 97         0.30115
      79 -> 97         0.46762
      80 -> 97         0.26631
      91 ->102         0.14470
      96 ->109         0.15373

 Excited State  59:      Singlet-A      7.3528 eV  168.62 nm  f=0.0007  <S**2>=0.000
      76 -> 97         0.13582
      78 -> 97         0.48276
      79 -> 97        -0.29884
      82 -> 97        -0.10855
      96 ->109        -0.30110

 Excited State  60:      Singlet-A      7.3681 eV  168.27 nm  f=0.0058  <S**2>=0.000
      78 -> 97         0.17120
      79 -> 97        -0.28768
      96 ->109         0.59579

 The electronic state is 1-A.
 Alpha  occ. eigenvalues --  -88.93200 -88.93063 -14.42307 -14.41913 -10.29883
 Alpha  occ. eigenvalues --  -10.29495 -10.25476 -10.25348 -10.24175 -10.24092
 Alpha  occ. eigenvalues --  -10.23749 -10.23523 -10.22550 -10.20884 -10.20815
 Alpha  occ. eigenvalues --  -10.20627 -10.20565 -10.20517 -10.20124 -10.20103
 Alpha  occ. eigenvalues --  -10.20011 -10.19944 -10.19839 -10.18322 -10.18135
 Alpha  occ. eigenvalues --   -7.99354  -7.99212  -5.95799  -5.95665  -5.95430
 Alpha  occ. eigenvalues --   -5.95296  -5.94953  -5.94796  -1.02305  -1.02123
 Alpha  occ. eigenvalues --   -0.87940  -0.87825  -0.85558  -0.84695  -0.82158
 Alpha  occ. eigenvalues --   -0.79017  -0.77608  -0.77335  -0.75876  -0.75039
 Alpha  occ. eigenvalues --   -0.74325  -0.71056  -0.66392  -0.66047  -0.65795
 Alpha  occ. eigenvalues --   -0.63584  -0.62234  -0.61269  -0.60121  -0.57492
 Alpha  occ. eigenvalues --   -0.56976  -0.53406  -0.52833  -0.52733  -0.50640
 Alpha  occ. eigenvalues --   -0.49888  -0.47757  -0.47458  -0.47398  -0.46741
 Alpha  occ. eigenvalues --   -0.46322  -0.46046  -0.45486  -0.45074  -0.43954
 Alpha  occ. eigenvalues --   -0.43562  -0.42198  -0.41490  -0.40644  -0.40446
 Alpha  occ. eigenvalues --   -0.39745  -0.39434  -0.38601  -0.38252  -0.37507
 Alpha  occ. eigenvalues --   -0.37349  -0.37075  -0.36723  -0.36391  -0.35873
 Alpha  occ. eigenvalues --   -0.35547  -0.35340  -0.35190  -0.32492  -0.31945
 Alpha  occ. eigenvalues --   -0.31766  -0.28177  -0.25258  -0.25188  -0.25083
 Alpha  occ. eigenvalues --   -0.19377
 Alpha virt. eigenvalues --   -0.08956  -0.01881  -0.01743  -0.01421  -0.00863
 Alpha virt. eigenvalues --   -0.00252  -0.00098   0.01977   0.06108   0.07059
 Alpha virt. eigenvalues --    0.07945   0.08947   0.10000   0.11204   0.12048

 Mulliken charges:
               1
     1  C   -0.151971
     2  C   -0.046783
     3  C   -0.163212
     4  C    0.127631
     5  C    0.120709
     6  S    0.284175
     7  C   -0.186087
     8  C    0.358715
     9  N   -0.518965
    10  S    0.282341
    11  C   -0.188127
    12  C    0.362474
    13  N   -0.524975
    14  C   -0.132303
    15  C   -0.092059
    16  C   -0.125913
    17  C   -0.100814
    18  C   -0.130737
    19  C   -0.089734
    20  C   -0.126204
    21  C   -0.097946
    22  C   -0.081698
    23  C   -0.330277
    24  C   -0.091982
    25  C   -0.330364
    26  H    0.148933
    27  H    0.134306
    28  H    0.137888
    29  H    0.143282
    30  H    0.127770
    31  H    0.129882
    32  H    0.145524
    33  H    0.144401
    34  H    0.128968
    35  H    0.131017
    36  H    0.147294
    37  H    0.159863
    38  H    0.159947
    39  H    0.135885
    40  H    0.134176
    41  H    0.133990
    42  H    0.157538
    43  H    0.161790
    44  H    0.137556
    45  H    0.138966
    46  H    0.135130
 Sum of Mulliken charges =   1.00000

 Dipole moment (field-independent basis, Debye):
    X=              1.1778    Y=              0.2198    Z=              1.2519  Tot=              1.7329
 Quadrupole moment (field-independent basis, Debye-Ang):
   XX=            -48.8449   YY=           -124.5503   ZZ=           -163.0263
   XY=             15.3267   XZ=              1.5078   YZ=              0.9215

 Normal termination of Gaussian 16 at Tue Oct 31 15:19:51 2023.
