 Gaussian 16, Revision C.02,
 Gaussian 16:  ES64L-G16RevC.02  7-Dec-2021

 ------------------------------------------------------------
 # td=(nstates=150) b3lyp/def2TZVP scrf(smd, solvent=ethanol)
 ------------------------------------------------------------

 ---
 B-1
 ---
 Symbolic Z-matrix:
 Charge =  0 Multiplicity = 1

                         Standard orientation:
 ---------------------------------------------------------------------
 Center     Atomic      Atomic             Coordinates (Angstroms)
 Number     Number       Type             X           Y           Z
 ---------------------------------------------------------------------
      1          6           0       13.193247    1.965180    0.357514
      2          6           0       14.150234    1.366297   -0.666837
      3          6           0       14.197930   -0.145886   -0.469985
      4          6           0       12.839886   -0.781119   -0.265942
      5          6           0       11.699193   -0.069117   -0.020535
      6          6           0       11.734254    1.463294    0.197940
      7          6           0       10.434640   -0.808638    0.027915
      8          6           0        9.147698   -0.368486    0.051934
      9          6           0        7.970978   -1.218813    0.064023
     10          6           0        6.738479   -0.618773    0.069992
     11          6           0        5.445845   -1.238015    0.078209
     12          6           0        4.280328   -0.525977    0.081210
     13          6           0        2.942601   -1.063627    0.086009
     14          6           0        1.885522   -0.185039    0.086900
     15          6           0        0.488362   -0.479870    0.088382
     16          6           0       -0.488364    0.479879    0.088381
     17          6           0       -1.885523    0.185049    0.086901
     18          6           0       -2.942603    1.063636    0.086010
     19          6           0       -4.280330    0.525984    0.081210
     20          6           0       -5.445847    1.238022    0.078205
     21          6           0       -6.738480    0.618778    0.069986
     22          6           0       -7.970980    1.218816    0.064016
     23          6           0       -9.147699    0.368486    0.051926
     24          6           0      -10.434641    0.808636    0.027911
     25          6           0      -11.699193    0.069112   -0.020539
     26          6           0      -11.734248   -1.463299    0.197935
     27          6           0       11.014600    1.853868    1.513234
     28          6           0       11.087577    2.209256   -0.996377
     29          6           0       12.878927   -2.293643   -0.398885
     30          6           0      -13.193238   -1.965187    0.357525
     31          6           0      -14.150237   -1.366308   -0.666817
     32          6           0      -14.197934    0.145875   -0.469969
     33          6           0      -12.839889    0.781111   -0.265939
     34          6           0      -11.014576   -1.853870    1.513220
     35          6           0      -11.087582   -2.209257   -0.996389
     36          6           0      -12.878932    2.293635   -0.398883
     37          6           0       -8.156563    2.717180    0.068498
     38          6           0       -2.769507    2.564242    0.088788
     39          6           0        2.769504   -2.564233    0.088790
     40          6           0        8.156557   -2.717177    0.068503
     41          1           0       13.552240    1.704444    1.363722
     42          1           0       13.191791    3.061587    0.302962
     43          1           0       15.153148    1.798268   -0.563053
     44          1           0       13.813091    1.597755   -1.685187
     45          1           0       14.836732   -0.392637    0.395545
     46          1           0       14.685170   -0.631298   -1.328645
     47          1           0       10.553209   -1.886254   -0.000126
     48          1           0        8.931571    0.694424    0.048253
     49          1           0        6.727188    0.472294    0.066595
     50          1           0        5.394190   -2.323329    0.080545
     51          1           0        4.354073    0.562407    0.078511
     52          1           0        2.136434    0.876729    0.085263
     53          1           0        0.172471   -1.521700    0.088524
     54          1           0       -0.172472    1.521709    0.088521
     55          1           0       -2.136435   -0.876720    0.085267
     56          1           0       -4.354074   -0.562400    0.078514
     57          1           0       -5.394193    2.323335    0.080538
     58          1           0       -6.727188   -0.472289    0.066588
     59          1           0       -8.931568   -0.694423    0.048240
     60          1           0      -10.553213    1.886252   -0.000123
     61          1           0       11.416560    1.280584    2.356412
     62          1           0       11.183965    2.918133    1.720013
     63          1           0        9.936160    1.690871    1.488587
     64          1           0       10.062275    1.884980   -1.187807
     65          1           0       11.067226    3.288779   -0.800274
     66          1           0       11.653135    2.045583   -1.919919
     67          1           0       13.913764   -2.648960   -0.350635
     68          1           0       12.324510   -2.809583    0.392139
     69          1           0       12.468777   -2.633235   -1.360075
     70          1           0      -13.191780   -3.061594    0.302976
     71          1           0      -13.552222   -1.704450    1.363737
     72          1           0      -15.153149   -1.798281   -0.563022
     73          1           0      -13.813104   -1.597768   -1.685170
     74          1           0      -14.836727    0.392627    0.395567
     75          1           0      -14.685183    0.631285   -1.328625
     76          1           0      -11.183932   -2.918136    1.719999
     77          1           0       -9.936137   -1.690867    1.488558
     78          1           0      -11.416527   -1.280589    2.356403
     79          1           0      -10.062283   -1.884978   -1.187830
     80          1           0      -11.067226   -3.288781   -0.800288
     81          1           0      -11.653150   -2.045585   -1.919926
     82          1           0      -13.913771    2.648951   -0.350639
     83          1           0      -12.324521    2.809577    0.392144
     84          1           0      -12.468777    2.633229   -1.360071
     85          1           0       -8.744087    3.036457    0.938730
     86          1           0       -7.209146    3.257946    0.093047
     87          1           0       -8.704221    3.047232   -0.823677
     88          1           0       -3.248036    3.011075    0.969534
     89          1           0       -1.721470    2.868026    0.092705
     90          1           0       -3.242385    3.013831   -0.793611
     91          1           0        3.242396   -3.013825   -0.793600
     92          1           0        3.248019   -3.011063    0.969546
     93          1           0        1.721466   -2.868016    0.092692
     94          1           0        7.209140   -3.257941    0.093061
     95          1           0        8.704208   -3.047230   -0.823677
     96          1           0        8.744089   -3.036455    0.938730
 ---------------------------------------------------------------------

 SCF Done:  E(RB3LYP) =  -1558.49738129     A.U. after   12 cycles

 Excitation energies and oscillator strengths:

 Excited State   1:      Singlet-A      1.9255 eV  643.92 nm  f=4.3162  <S**2>=0.000
     148 -> 149        0.70762
 This state for optimization and/or second-order correction.
 Total Energy, E(TD-HF/TD-DFT) =  -1558.42662177
 Copying the excited state density for this state as the 1-particle RhoCI density.

 Excited State   2:      Singlet-A      2.4615 eV  503.70 nm  f=0.0001  <S**2>=0.000
     147 -> 149        0.61356
     148 -> 150        0.34031

 Excited State   3:      Singlet-A      2.9830 eV  415.64 nm  f=0.0023  <S**2>=0.000
     147 -> 149       -0.34662
     148 -> 150        0.61467

 Excited State   4:      Singlet-A      3.1050 eV  399.30 nm  f=0.0860  <S**2>=0.000
     146 -> 149        0.64002
     147 -> 150        0.10935
     148 -> 151        0.26822

 Excited State   5:      Singlet-A      3.4339 eV  361.05 nm  f=0.1926  <S**2>=0.000
     147 -> 150        0.58412
     148 -> 151       -0.38547

 Excited State   6:      Singlet-A      3.7407 eV  331.45 nm  f=0.0000  <S**2>=0.000
     145 -> 149        0.65952
     148 -> 152        0.20193

 Excited State   7:      Singlet-A      3.8014 eV  326.15 nm  f=0.3489  <S**2>=0.000
     144 -> 149       -0.18366
     146 -> 149       -0.27967
     147 -> 150        0.36351
     148 -> 151        0.50464

 Excited State   8:      Singlet-A      4.0116 eV  309.07 nm  f=0.0001  <S**2>=0.000
     146 -> 150        0.62680
     147 -> 151       -0.24427
     148 -> 152       -0.17746

 Excited State   9:      Singlet-A      4.2201 eV  293.80 nm  f=0.0007  <S**2>=0.000
     146 -> 150        0.12354
     147 -> 151        0.57910
     148 -> 152       -0.37553

 Excited State  10:      Singlet-A      4.2393 eV  292.46 nm  f=0.0628  <S**2>=0.000
     144 -> 149        0.65030
     148 -> 151        0.14455
     148 -> 153       -0.16844

 Excited State  11:      Singlet-A      4.5300 eV  273.70 nm  f=0.0035  <S**2>=0.000
     143 -> 149       -0.30885
     145 -> 149       -0.20860
     146 -> 150        0.24742
     147 -> 151        0.25774
     148 -> 152        0.47305

 Excited State  12:      Singlet-A      4.6294 eV  267.82 nm  f=0.0027  <S**2>=0.000
     145 -> 150        0.62550
     147 -> 152       -0.19249
     148 -> 153        0.22073

 Excited State  13:      Singlet-A      4.8522 eV  255.52 nm  f=0.1386  <S**2>=0.000
     145 -> 150       -0.16508
     146 -> 151        0.63462
     148 -> 153        0.24861

 Excited State  14:      Singlet-A      4.8661 eV  254.79 nm  f=0.0010  <S**2>=0.000
     143 -> 149        0.58820
     146 -> 150        0.12084
     147 -> 151        0.13701
     148 -> 152        0.23041
     148 -> 156       -0.12806
     148 -> 158        0.12432

 Excited State  15:      Singlet-A      4.9326 eV  251.35 nm  f=0.0018  <S**2>=0.000
     141 -> 150        0.16604
     142 -> 149        0.67382

 Excited State  16:      Singlet-A      4.9425 eV  250.85 nm  f=0.0000  <S**2>=0.000
     141 -> 149        0.67237
     142 -> 150        0.16486

 Excited State  17:      Singlet-A      4.9791 eV  249.01 nm  f=0.0100  <S**2>=0.000
     146 -> 151       -0.12386
     147 -> 152        0.53066
     148 -> 153        0.42973

 Excited State  18:      Singlet-A      5.0882 eV  243.67 nm  f=0.0007  <S**2>=0.000
     147 -> 152       -0.10284
     147 -> 154       -0.19054
     148 -> 153        0.10157
     148 -> 155        0.63763
     148 -> 157       -0.12985

 Excited State  19:      Singlet-A      5.0959 eV  243.30 nm  f=0.0099  <S**2>=0.000
     147 -> 155       -0.19470
     148 -> 154        0.65652
     148 -> 156        0.12055

 Excited State  20:      Singlet-A      5.1195 eV  242.18 nm  f=0.0000  <S**2>=0.000
     144 -> 150        0.63357
     147 -> 153        0.15986
     148 -> 156        0.15060
     148 -> 158       -0.13723

 Excited State  21:      Singlet-A      5.1700 eV  239.81 nm  f=0.0328  <S**2>=0.000
     140 -> 149        0.39162
     144 -> 149        0.13622
     145 -> 150       -0.20946
     146 -> 151       -0.19662
     147 -> 152       -0.30673
     148 -> 153        0.28804
     148 -> 155       -0.14798

 Excited State  22:      Singlet-A      5.3097 eV  233.50 nm  f=0.0018  <S**2>=0.000
     140 -> 149       -0.28498
     148 -> 153        0.10103
     148 -> 157        0.57354
     148 -> 159        0.16043

 Excited State  23:      Singlet-A      5.3447 eV  231.98 nm  f=0.0005  <S**2>=0.000
     137 -> 149        0.10768
     139 -> 149        0.64400
     140 -> 150       -0.10207
     148 -> 156        0.15502

 Excited State  24:      Singlet-A      5.3546 eV  231.55 nm  f=0.0196  <S**2>=0.000
     138 -> 149       -0.24542
     140 -> 149        0.45749
     145 -> 150        0.12081
     146 -> 151        0.12735
     147 -> 152        0.18002
     148 -> 153       -0.19650
     148 -> 157        0.26197
     148 -> 159        0.13657

 Excited State  25:      Singlet-A      5.3661 eV  231.05 nm  f=0.0039  <S**2>=0.000
     139 -> 149       -0.14265
     145 -> 151        0.11166
     147 -> 157        0.14088
     148 -> 154       -0.12397
     148 -> 156        0.53022
     148 -> 158        0.33314
     148 -> 162        0.12473

 Excited State  26:      Singlet-A      5.4029 eV  229.48 nm  f=0.0010  <S**2>=0.000
     137 -> 149        0.10419
     139 -> 149       -0.10614
     144 -> 150       -0.18165
     145 -> 151        0.57550
     148 -> 158       -0.29038

 Excited State  27:      Singlet-A      5.4149 eV  228.97 nm  f=0.0095  <S**2>=0.000
     138 -> 149        0.61863
     140 -> 149        0.10340
     147 -> 152        0.11357
     148 -> 153       -0.13432
     148 -> 163       -0.12214

 Excited State  28:      Singlet-A      5.4674 eV  226.77 nm  f=0.0001  <S**2>=0.000
     137 -> 149        0.62199
     139 -> 149       -0.12351
     145 -> 151       -0.20020

 Excited State  29:      Singlet-A      5.5296 eV  224.22 nm  f=0.0002  <S**2>=0.000
     137 -> 149        0.16891
     145 -> 151        0.16326
     146 -> 152       -0.33343
     147 -> 153        0.23428
     148 -> 156       -0.27961
     148 -> 158        0.40126

 Excited State  30:      Singlet-A      5.5610 eV  222.95 nm  f=0.0012  <S**2>=0.000
     147 -> 156       -0.12466
     148 -> 157       -0.20131
     148 -> 159        0.58705
     148 -> 161       -0.17944
     148 -> 166        0.12240

 Excited State  31:      Singlet-A      5.5909 eV  221.76 nm  f=0.0004  <S**2>=0.000
     147 -> 161        0.12905
     148 -> 160        0.65232
     148 -> 168        0.13672

 Excited State  32:      Singlet-A      5.6042 eV  221.24 nm  f=0.0007  <S**2>=0.000
     147 -> 160        0.15304
     148 -> 159        0.22560
     148 -> 161        0.59655
     148 -> 166       -0.14155

 Excited State  33:      Singlet-A      5.6176 eV  220.71 nm  f=0.0026  <S**2>=0.000
     134 -> 149        0.17121
     136 -> 149       -0.12468
     143 -> 150        0.27676
     147 -> 158       -0.11322
     148 -> 161       -0.13166
     148 -> 163        0.53198

 Excited State  34:      Singlet-A      5.6499 eV  219.45 nm  f=0.0000  <S**2>=0.000
     146 -> 152        0.44246
     147 -> 153        0.52292

 Excited State  35:      Singlet-A      5.6838 eV  218.14 nm  f=0.0003  <S**2>=0.000
     147 -> 153       -0.11988
     147 -> 161       -0.15084
     148 -> 162        0.63210

 Excited State  36:      Singlet-A      5.7395 eV  216.02 nm  f=0.0094  <S**2>=0.000
     134 -> 149       -0.10533
     136 -> 149        0.51887
     143 -> 150        0.40180

 Excited State  37:      Singlet-A      5.7594 eV  215.27 nm  f=0.0004  <S**2>=0.000
     135 -> 149        0.56071
     146 -> 152        0.18101
     147 -> 153       -0.13432
     147 -> 155       -0.17040
     148 -> 169        0.14858

 Excited State  38:      Singlet-A      5.7734 eV  214.75 nm  f=0.0002  <S**2>=0.000
     136 -> 149        0.39347
     141 -> 150        0.12192
     143 -> 150       -0.33837
     147 -> 154        0.11846
     148 -> 163        0.23970
     148 -> 167       -0.29316

 Excited State  39:      Singlet-A      5.7740 eV  214.73 nm  f=0.0002  <S**2>=0.000
     135 -> 149        0.37167
     137 -> 149       -0.11808
     145 -> 151       -0.12609
     146 -> 152       -0.22684
     146 -> 154       -0.10019
     147 -> 153        0.16174
     147 -> 155        0.34411
     148 -> 154        0.12634
     148 -> 158       -0.13468
     148 -> 165        0.16390

 Excited State  40:      Singlet-A      5.7880 eV  214.21 nm  f=0.0010  <S**2>=0.000
     146 -> 155       -0.15750
     147 -> 154        0.57944
     148 -> 155        0.19988
     148 -> 164        0.11466
     148 -> 166        0.20876

 Excited State  41:      Singlet-A      5.8074 eV  213.49 nm  f=0.0027  <S**2>=0.000
     141 -> 149       -0.11507
     141 -> 151       -0.10558
     142 -> 150        0.34949
     146 -> 152        0.12183
     146 -> 154       -0.11885
     147 -> 153       -0.10050
     147 -> 155        0.45311
     148 -> 154        0.13055
     148 -> 162       -0.12779
     148 -> 165       -0.14536

 Excited State  42:      Singlet-A      5.8188 eV  213.07 nm  f=0.0036  <S**2>=0.000
     130 -> 149        0.17054
     133 -> 149        0.14366
     134 -> 149        0.12711
     136 -> 149        0.10392
     141 -> 150        0.10577
     147 -> 154       -0.19866
     148 -> 161        0.10744
     148 -> 164        0.40400
     148 -> 166        0.31393
     148 -> 167        0.18358

 Excited State  43:      Singlet-A      5.8240 eV  212.89 nm  f=0.0003  <S**2>=0.000
     130 -> 149        0.35051
     133 -> 149        0.38570
     141 -> 150       -0.37456
     142 -> 149        0.11776
     142 -> 151        0.10614
     148 -> 167       -0.13719

 Excited State  44:      Singlet-A      5.8244 eV  212.87 nm  f=0.0015  <S**2>=0.000
     132 -> 149        0.12341
     141 -> 149       -0.14008
     141 -> 151       -0.15291
     142 -> 150        0.50813
     146 -> 152       -0.13462
     147 -> 153        0.12644
     147 -> 155       -0.21543
     148 -> 165        0.15688
     148 -> 169       -0.13325

 Excited State  45:      Singlet-A      5.8364 eV  212.43 nm  f=0.0006  <S**2>=0.000
     130 -> 149        0.29985
     133 -> 149        0.23778
     141 -> 150        0.44934
     142 -> 149       -0.11550
     142 -> 151       -0.13560
     148 -> 164       -0.15001
     148 -> 166       -0.18464

 Excited State  46:      Singlet-A      5.8406 eV  212.28 nm  f=0.0034  <S**2>=0.000
     134 -> 149       -0.23805
     136 -> 149       -0.11389
     141 -> 150        0.15828
     143 -> 150        0.11700
     147 -> 165       -0.11355
     148 -> 164       -0.17340
     148 -> 166        0.41697
     148 -> 167       -0.33554

 Excited State  47:      Singlet-A      5.8975 eV  210.23 nm  f=0.0001  <S**2>=0.000
     143 -> 150       -0.22684
     144 -> 151        0.58141
     145 -> 152        0.11352
     148 -> 164       -0.15048
     148 -> 166        0.10419
     148 -> 167        0.14465

 Excited State  48:      Singlet-A      5.9097 eV  209.80 nm  f=0.0000  <S**2>=0.000
     129 -> 149        0.49729
     131 -> 149        0.25072
     132 -> 149        0.35820
     133 -> 150       -0.12634

 Excited State  49:      Singlet-A      5.9162 eV  209.57 nm  f=0.0023  <S**2>=0.000
     131 -> 149       -0.16357
     132 -> 149        0.15690
     145 -> 151        0.14055
     146 -> 152        0.20821
     147 -> 153       -0.16818
     147 -> 164        0.10947
     148 -> 158        0.15531
     148 -> 165        0.42852
     148 -> 169       -0.25675

 Excited State  50:      Singlet-A      5.9774 eV  207.42 nm  f=0.0008  <S**2>=0.000
     147 -> 157       -0.20929
     147 -> 159       -0.14437
     148 -> 160       -0.12187
     148 -> 168        0.59663
     148 -> 173       -0.10944

 Excited State  51:      Singlet-A      6.0118 eV  206.23 nm  f=0.0007  <S**2>=0.000
     134 -> 149        0.14566
     144 -> 151       -0.24851
     146 -> 153       -0.14344
     147 -> 156       -0.18654
     147 -> 165       -0.10720
     148 -> 163        0.16596
     148 -> 164       -0.32458
     148 -> 166        0.19131
     148 -> 167        0.33784

 Excited State  52:      Singlet-A      6.0119 eV  206.23 nm  f=0.0000  <S**2>=0.000
     131 -> 149        0.20556
     132 -> 149       -0.13363
     135 -> 149       -0.13437
     137 -> 149       -0.12970
     140 -> 150       -0.18731
     147 -> 167       -0.10157
     148 -> 165        0.37877
     148 -> 169        0.41642

 Excited State  53:      Singlet-A      6.0146 eV  206.14 nm  f=0.0006  <S**2>=0.000
     125 -> 149       -0.20277
     128 -> 149       -0.36288
     130 -> 149       -0.31413
     132 -> 150       -0.12302
     133 -> 149        0.39410

 Excited State  54:      Singlet-A      6.0552 eV  204.76 nm  f=0.0109  <S**2>=0.000
     134 -> 149        0.36331
     146 -> 153        0.11883
     147 -> 156        0.41552
     148 -> 163       -0.13502
     148 -> 164       -0.19651
     148 -> 166        0.15588
     148 -> 170        0.20173

 Excited State  55:      Singlet-A      6.0764 eV  204.04 nm  f=0.0161  <S**2>=0.000
     134 -> 149       -0.32351
     146 -> 153       -0.11594
     147 -> 156        0.14717
     147 -> 158        0.26635
     147 -> 168       -0.11267
     148 -> 163        0.16393
     148 -> 164        0.13602
     148 -> 167        0.10812
     148 -> 170        0.40217

 Excited State  56:      Singlet-A      6.0804 eV  203.91 nm  f=0.0002  <S**2>=0.000
     147 -> 157        0.62608
     148 -> 156       -0.11703
     148 -> 168        0.22305

 Excited State  57:      Singlet-A      6.1041 eV  203.11 nm  f=0.0000  <S**2>=0.000
     122 -> 149        0.22337
     127 -> 149       -0.24926
     129 -> 149       -0.35497
     130 -> 150        0.12922
     131 -> 149        0.27960
     132 -> 149        0.35522
     133 -> 150       -0.10367

 Excited State  58:      Singlet-A      6.1294 eV  202.28 nm  f=0.0090  <S**2>=0.000
     134 -> 149        0.13276
     147 -> 156       -0.37833
     147 -> 158       -0.21392
     148 -> 170        0.45134

 Excited State  59:      Singlet-A      6.1882 eV  200.36 nm  f=0.0001  <S**2>=0.000
     131 -> 149        0.32018
     132 -> 149       -0.23437
     140 -> 150        0.47093
     148 -> 165        0.18331
     148 -> 169       -0.13448
     148 -> 171       -0.10613

 Excited State  60:      Singlet-A      6.1953 eV  200.13 nm  f=0.0125  <S**2>=0.000
     125 -> 149        0.13966
     128 -> 149        0.15536
     130 -> 149       -0.13660
     133 -> 149        0.10211
     134 -> 149        0.13623
     139 -> 150        0.25017
     143 -> 150        0.10266
     144 -> 151        0.12269
     145 -> 152       -0.16668
     146 -> 153        0.11442
     147 -> 156       -0.18153
     147 -> 158        0.44468

 Excited State  61:      Singlet-A      6.2086 eV  199.70 nm  f=0.0044  <S**2>=0.000
     121 -> 149       -0.10905
     125 -> 149       -0.26734
     128 -> 149       -0.26140
     129 -> 150       -0.10905
     130 -> 149        0.24502
     133 -> 149       -0.18533
     139 -> 150       -0.23202
     145 -> 152       -0.13436
     146 -> 153        0.10015
     147 -> 156       -0.12074
     147 -> 158        0.29626

 Excited State  62:      Singlet-A      6.2348 eV  198.86 nm  f=0.0001  <S**2>=0.000
     131 -> 149       -0.30970
     132 -> 149        0.22390
     138 -> 150       -0.29902
     139 -> 151        0.12512
     140 -> 150        0.31939
     148 -> 169        0.31567

 Excited State  63:      Singlet-A      6.2527 eV  198.29 nm  f=0.0042  <S**2>=0.000
     121 -> 149       -0.12483
     125 -> 149       -0.20150
     128 -> 149       -0.15674
     130 -> 149        0.17289
     133 -> 149       -0.12584
     138 -> 151       -0.10839
     139 -> 150        0.53520
     140 -> 151        0.10273

 Excited State  64:      Singlet-A      6.2867 eV  197.22 nm  f=0.0013  <S**2>=0.000
     138 -> 150       -0.20340
     147 -> 159        0.55056
     148 -> 160       -0.12831
     148 -> 168        0.13799
     148 -> 169       -0.10118
     148 -> 173        0.17648

 Excited State  65:      Singlet-A      6.3034 eV  196.69 nm  f=0.0127  <S**2>=0.000
     144 -> 151       -0.14146
     145 -> 152        0.35320
     146 -> 153        0.56077

 Excited State  66:      Singlet-A      6.3067 eV  196.59 nm  f=0.0002  <S**2>=0.000
     122 -> 149        0.12120
     127 -> 149       -0.10753
     131 -> 149       -0.12213
     138 -> 150        0.43544
     140 -> 150        0.17736
     147 -> 159        0.22471
     147 -> 163        0.15651
     148 -> 169        0.17707
     148 -> 171       -0.21661

 Excited State  67:      Singlet-A      6.3156 eV  196.32 nm  f=0.0007  <S**2>=0.000
     146 -> 161        0.11224
     147 -> 160        0.60408
     148 -> 161       -0.16831
     148 -> 174        0.15786

 Excited State  68:      Singlet-A      6.3331 eV  195.77 nm  f=0.0000  <S**2>=0.000
     147 -> 159       -0.15730
     147 -> 161        0.58374
     148 -> 160       -0.10344
     148 -> 162        0.17697
     148 -> 173        0.16439

 Excited State  69:      Singlet-A      6.3356 eV  195.69 nm  f=0.0507  <S**2>=0.000
     134 -> 149        0.18995
     137 -> 150        0.13155
     139 -> 150       -0.10757
     145 -> 152        0.41902
     146 -> 153       -0.16638
     147 -> 158        0.10242
     147 -> 160        0.10174
     147 -> 171       -0.11849
     148 -> 164        0.10263
     148 -> 167       -0.12346
     148 -> 172       -0.34316

 Excited State  70:      Singlet-A      6.3495 eV  195.27 nm  f=0.0004  <S**2>=0.000
     118 -> 149       -0.12788
     122 -> 149        0.38712
     127 -> 149       -0.33706
     128 -> 150        0.11765
     129 -> 149        0.27485
     132 -> 149       -0.17363
     138 -> 150       -0.21420

 Excited State  71:      Singlet-A      6.3712 eV  194.60 nm  f=0.0252  <S**2>=0.000
     126 -> 149        0.23214
     137 -> 150       -0.31200
     145 -> 152        0.27303
     146 -> 153       -0.12065
     147 -> 171        0.11548
     148 -> 172        0.39576

 Excited State  72:      Singlet-A      6.3901 eV  194.03 nm  f=0.0002  <S**2>=0.000
     138 -> 150        0.16505
     140 -> 150        0.15775
     147 -> 163        0.15760
     147 -> 172        0.14961
     148 -> 171        0.58158

 Excited State  73:      Singlet-A      6.4169 eV  193.22 nm  f=0.0008  <S**2>=0.000
     147 -> 159       -0.20049
     147 -> 161       -0.21652
     148 -> 173        0.56869
     148 -> 175       -0.17489
     148 -> 177        0.12096

 Excited State  74:      Singlet-A      6.4173 eV  193.20 nm  f=0.0005  <S**2>=0.000
     120 -> 149        0.21001
     121 -> 149        0.12070
     123 -> 149        0.12213
     125 -> 149       -0.23357
     126 -> 149       -0.20302
     128 -> 149        0.21451
     146 -> 155        0.10145
     147 -> 162        0.44648

 Excited State  75:      Singlet-A      6.4188 eV  193.16 nm  f=0.0004  <S**2>=0.000
     120 -> 149       -0.25334
     121 -> 149       -0.13120
     123 -> 149       -0.10349
     125 -> 149        0.31837
     128 -> 149       -0.25387
     147 -> 162        0.40741

 Excited State  76:      Singlet-A      6.4333 eV  192.72 nm  f=0.0111  <S**2>=0.000
     120 -> 149        0.13449
     121 -> 149        0.21010
     126 -> 149        0.52160
     145 -> 152       -0.11440
     146 -> 153        0.13653
     146 -> 155        0.14384
     148 -> 167       -0.10001
     148 -> 172       -0.14980

 Excited State  77:      Singlet-A      6.4451 eV  192.37 nm  f=0.0001  <S**2>=0.000
     143 -> 151        0.10926
     145 -> 155       -0.10513
     146 -> 154        0.33245
     147 -> 155        0.11665
     147 -> 163        0.39412
     147 -> 164        0.10335
     148 -> 173       -0.10639
     148 -> 175       -0.30909

 Excited State  78:      Singlet-A      6.4473 eV  192.31 nm  f=0.0003  <S**2>=0.000
     120 -> 149       -0.14492
     121 -> 149       -0.31965
     123 -> 149       -0.14743
     125 -> 149       -0.14941
     126 -> 149        0.18199
     128 -> 149        0.19789
     137 -> 150        0.37111
     146 -> 155        0.17013
     148 -> 172        0.12861

 Excited State  79:      Singlet-A      6.4524 eV  192.15 nm  f=0.0001  <S**2>=0.000
     138 -> 150       -0.12281
     140 -> 150       -0.13373
     143 -> 151        0.22581
     146 -> 154       -0.33566
     147 -> 155       -0.10583
     147 -> 163        0.41673
     148 -> 175        0.20445

 The electronic state is 1-A.
 Alpha  occ. eigenvalues --  -10.18531 -10.18531 -10.18374 -10.18374 -10.18098
 Alpha  occ. eigenvalues --  -10.18098 -10.17837 -10.17837 -10.17403 -10.17336
 Alpha  occ. eigenvalues --  -10.17163 -10.17163 -10.17114 -10.17113 -10.17065
 Alpha  occ. eigenvalues --  -10.17065 -10.17019 -10.17018 -10.16835 -10.16835
 Alpha  occ. eigenvalues --  -10.16704 -10.16704 -10.16458 -10.16458 -10.16183
 Alpha  occ. eigenvalues --  -10.16183 -10.15973 -10.15973 -10.15903 -10.15903
 Alpha  occ. eigenvalues --  -10.15745 -10.15745 -10.15447 -10.15447 -10.15328
 Alpha  occ. eigenvalues --  -10.15328 -10.14842 -10.14842 -10.14814 -10.14814
 Alpha  occ. eigenvalues --   -0.84678  -0.84676  -0.83691  -0.83163  -0.82197
 Alpha  occ. eigenvalues --   -0.81569  -0.79121  -0.78173  -0.78157  -0.77569
 Alpha  occ. eigenvalues --   -0.76853  -0.75377  -0.74269  -0.72033  -0.71693
 Alpha  occ. eigenvalues --   -0.70114  -0.68539  -0.68520  -0.67995  -0.67769
 Alpha  occ. eigenvalues --   -0.67654  -0.67647  -0.66768  -0.66711  -0.66434
 Alpha  occ. eigenvalues --   -0.63437  -0.61393  -0.59885  -0.58541  -0.56800
 Alpha  occ. eigenvalues --   -0.55845  -0.55845  -0.54746  -0.54327  -0.53246
 Alpha  occ. eigenvalues --   -0.52883  -0.52226  -0.51082  -0.49953  -0.49563
 Alpha  occ. eigenvalues --   -0.48215  -0.47379  -0.47126  -0.46779  -0.46352
 Alpha  occ. eigenvalues --   -0.45888  -0.44644  -0.44318  -0.43994  -0.43837
 Alpha  occ. eigenvalues --   -0.42971  -0.42639  -0.42086  -0.41839  -0.41770
 Alpha  occ. eigenvalues --   -0.41720  -0.41554  -0.41471  -0.41286  -0.41240
 Alpha  occ. eigenvalues --   -0.41197  -0.41181  -0.39894  -0.39869  -0.39733
 Alpha  occ. eigenvalues --   -0.39622  -0.39111  -0.38511  -0.38408  -0.38343
 Alpha  occ. eigenvalues --   -0.38186  -0.38169  -0.37407  -0.37121  -0.36799
 Alpha  occ. eigenvalues --   -0.36349  -0.36268  -0.36084  -0.35911  -0.35797
 Alpha  occ. eigenvalues --   -0.35335  -0.34784  -0.34506  -0.34504  -0.34327
 Alpha  occ. eigenvalues --   -0.34231  -0.34094  -0.33927  -0.33559  -0.33323
 Alpha  occ. eigenvalues --   -0.33195  -0.33184  -0.33161  -0.32629  -0.31475
 Alpha  occ. eigenvalues --   -0.31406  -0.30638  -0.30296  -0.30117  -0.29858
 Alpha  occ. eigenvalues --   -0.28752  -0.28728  -0.28112  -0.25787  -0.23962
 Alpha  occ. eigenvalues --   -0.21608  -0.19181  -0.16727
 Alpha virt. eigenvalues --   -0.09044  -0.05615  -0.02728   0.00294   0.02680
 Alpha virt. eigenvalues --    0.03535   0.03543   0.04561   0.04588   0.04835
 Alpha virt. eigenvalues --    0.05461   0.05602   0.05688   0.05909   0.06054

 Mulliken charges:
               1
     1  C   -0.207258
     2  C   -0.192004
     3  C   -0.188333
     4  C    0.073262
     5  C   -0.092741
     6  C    0.185788
     7  C   -0.151154
     8  C   -0.197068
     9  C    0.055702
    10  C   -0.183336
    11  C   -0.133458
    12  C   -0.216281
    13  C    0.094090
    14  C   -0.164105
    15  C   -0.157551
    16  C   -0.157551
    17  C   -0.164104
    18  C    0.094089
    19  C   -0.216281
    20  C   -0.133458
    21  C   -0.183335
    22  C    0.055700
    23  C   -0.197068
    24  C   -0.151155
    25  C   -0.092741
    26  C    0.185788
    27  C   -0.418929
    28  C   -0.438389
    29  C   -0.442973
    30  C   -0.207258
    31  C   -0.192004
    32  C   -0.188333
    33  C    0.073262
    34  C   -0.418927
    35  C   -0.438389
    36  C   -0.442974
    37  C   -0.422358
    38  C   -0.416418
    39  C   -0.416418
    40  C   -0.422358
    41  H    0.093643
    42  H    0.107732
    43  H    0.105815
    44  H    0.098464
    45  H    0.111566
    46  H    0.122543
    47  H    0.154397
    48  H    0.140809
    49  H    0.128884
    50  H    0.150795
    51  H    0.131179
    52  H    0.132179
    53  H    0.132598
    54  H    0.132598
    55  H    0.132179
    56  H    0.131180
    57  H    0.150796
    58  H    0.128884
    59  H    0.140809
    60  H    0.154397
    61  H    0.121670
    62  H    0.121906
    63  H    0.124042
    64  H    0.126091
    65  H    0.121007
    66  H    0.124816
    67  H    0.140033
    68  H    0.139432
    69  H    0.143956
    70  H    0.107732
    71  H    0.093643
    72  H    0.105815
    73  H    0.098464
    74  H    0.111566
    75  H    0.122543
    76  H    0.121906
    77  H    0.124041
    78  H    0.121670
    79  H    0.126092
    80  H    0.121007
    81  H    0.124816
    82  H    0.140033
    83  H    0.139432
    84  H    0.143956
    85  H    0.139229
    86  H    0.141340
    87  H    0.139735
    88  H    0.139102
    89  H    0.141545
    90  H    0.139007
    91  H    0.139007
    92  H    0.139102
    93  H    0.141545
    94  H    0.141340
    95  H    0.139735
    96  H    0.139229
 Sum of Mulliken charges =  -0.00000

 Dipole moment (field-independent basis, Debye):
    X=              0.0000    Y=             -0.0000    Z=             -0.5267  Tot=              0.5267
 Quadrupole moment (field-independent basis, Debye-Ang):
   XX=           -154.6466   YY=           -229.7442   ZZ=           -263.8589
   XY=            -15.1659   XZ=             -0.0002   YZ=              0.0000

 Normal termination of Gaussian 16 at Mon Nov  6 14:23:45 2023.
