 Gaussian 16, Revision C.02,
 Gaussian 16:  ES64L-G16RevC.02  7-Dec-2021

 ------------------------------------------------------------
 # td=(nstates=150) b3lyp/def2TZVP scrf(smd, solvent=ethanol)
 ------------------------------------------------------------

 ---
 A-2
 ---
 Symbolic Z-matrix:
 Charge =  1 Multiplicity = 1

                         Standard orientation:
 ---------------------------------------------------------------------
 Center     Atomic      Atomic             Coordinates (Angstroms)
 Number     Number       Type             X           Y           Z
 ---------------------------------------------------------------------
      1          6           0        1.185932    1.124188    0.259065
      2          6           0       -0.064042    0.518894    0.184736
      3          6           0       -1.255062    1.232433    0.206071
      4          6           0       -2.576908    0.775971    0.134368
      5          6           0        2.392634    0.431471    0.171283
      6         16           0       -3.827667    1.970009   -0.187075
      7          6           0       -5.077877    0.744792   -0.134775
      8          6           0       -4.509195   -0.508640    0.113846
      9          7           0       -3.118372   -0.458179    0.279721
     10         16           0        2.505198   -1.300121   -0.125106
     11          6           0        4.260315   -1.225762   -0.102553
     12          6           0        4.688784    0.087010    0.119416
     13          7           0        3.627512    0.981655    0.287411
     14          6           0        5.159317   -2.267461   -0.279503
     15          6           0        6.517913   -1.973596   -0.237257
     16          6           0        6.953940   -0.663841   -0.025333
     17          6           0        6.051566    0.378213    0.153458
     18          6           0       -6.446804    0.904176   -0.304215
     19          6           0       -7.251229   -0.226106   -0.226408
     20          6           0       -6.689747   -1.482485    0.014868
     21          6           0       -5.320051   -1.640504    0.186250
     22          6           0        3.847144    2.415669    0.554580
     23          6           0        3.911762    3.249637   -0.717632
     24          6           0       -2.369369   -1.660308    0.692423
     25          6           0       -1.918854   -2.522991   -0.479110
     26          1           0        1.228852    2.199196    0.376562
     27          1           0       -0.096636   -0.556945    0.072235
     28          1           0       -1.165193    2.314370    0.224199
     29          1           0        4.813961   -3.279951   -0.448352
     30          1           0        7.240415   -2.768718   -0.373960
     31          1           0        8.015538   -0.449707   -0.002068
     32          1           0        6.406822    1.388085    0.306065
     33          1           0       -6.875736    1.880738   -0.491225
     34          1           0       -8.321880   -0.129159   -0.357431
     35          1           0       -7.330326   -2.354283    0.067360
     36          1           0       -4.901973   -2.621689    0.363736
     37          1           0        3.048585    2.754296    1.212168
     38          1           0        4.772710    2.494849    1.122044
     39          1           0        4.082538    4.295496   -0.452515
     40          1           0        4.728911    2.924468   -1.364544
     41          1           0        2.978199    3.187215   -1.279982
     42          1           0       -1.531667   -1.329317    1.302601
     43          1           0       -3.027666   -2.224702    1.351768
     44          1           0       -1.276100   -1.972556   -1.168349
     45          1           0       -1.359149   -3.379171   -0.096017
     46          1           0       -2.775672   -2.899604   -1.040801
 ---------------------------------------------------------------------

 SCF Done:  E(RB3LYP) =  -1719.04709466     A.U. after   13 cycles

 Excitation energies and oscillator strengths:

 Excited State   1:      Singlet-A      2.5805 eV  480.46 nm  f=1.6826  <S**2>=0.000
      96 -> 97         0.70693
 This state for optimization and/or second-order correction.
 Total Energy, E(TD-HF/TD-DFT) =  -1718.95226173
 Copying the excited state density for this state as the 1-particle RhoCI density.

 Excited State   2:      Singlet-A      3.8352 eV  323.28 nm  f=0.0320  <S**2>=0.000
      93 -> 97        -0.12122
      94 -> 97        -0.14734
      95 -> 97         0.63127
      96 -> 98        -0.13878
      96 -> 99        -0.16756

 Excited State   3:      Singlet-A      3.8833 eV  319.28 nm  f=0.0135  <S**2>=0.000
      93 -> 97        -0.32635
      94 -> 97         0.55319
      96 -> 98        -0.15770
      96 -> 99         0.19907

 Excited State   4:      Singlet-A      3.9962 eV  310.25 nm  f=0.0141  <S**2>=0.000
      93 -> 97         0.49418
      94 -> 97         0.28743
      95 -> 97         0.23530
      96 -> 98         0.29594
      96 ->100        -0.12363

 Excited State   5:      Singlet-A      4.0932 eV  302.91 nm  f=0.0084  <S**2>=0.000
      93 -> 97         0.14212
      96 -> 98        -0.25922
      96 -> 99         0.14150
      96 ->100        -0.13622
      96 ->101         0.59723

 Excited State   6:      Singlet-A      4.1273 eV  300.40 nm  f=0.0886  <S**2>=0.000
      93 -> 97        -0.11691
      94 -> 97        -0.23704
      95 -> 97         0.13514
      96 -> 98         0.16167
      96 -> 99         0.59973
      96 ->100         0.11368

 Excited State   7:      Singlet-A      4.1542 eV  298.45 nm  f=0.0316  <S**2>=0.000
      93 -> 97        -0.28229
      96 -> 98         0.49633
      96 -> 99        -0.17227
      96 ->101         0.34535

 Excited State   8:      Singlet-A      4.2633 eV  290.82 nm  f=0.0034  <S**2>=0.000
      96 ->100         0.22075
      96 ->102         0.12512
      96 ->103         0.64612

 Excited State   9:      Singlet-A      4.3365 eV  285.91 nm  f=0.0270  <S**2>=0.000
      94 -> 97         0.12933
      96 -> 98        -0.10991
      96 ->100         0.60588
      96 ->101         0.10300
      96 ->103        -0.22643

 Excited State  10:      Singlet-A      4.5392 eV  273.14 nm  f=0.0312  <S**2>=0.000
      92 -> 97        -0.17559
      96 ->102         0.65992
      96 ->103        -0.11365

 Excited State  11:      Singlet-A      4.7679 eV  260.04 nm  f=0.0422  <S**2>=0.000
      92 -> 97         0.66122
      96 ->102         0.14983

 Excited State  12:      Singlet-A      5.1007 eV  243.07 nm  f=0.0268  <S**2>=0.000
      96 ->104         0.68457

 Excited State  13:      Singlet-A      5.4102 eV  229.17 nm  f=0.0951  <S**2>=0.000
      92 -> 99        -0.12602
      93 -> 98         0.41090
      93 -> 99        -0.11654
      94 -> 99         0.15679
      94 ->100        -0.25643
      94 ->102        -0.16095
      95 -> 98         0.16744
      95 -> 99        -0.11472
      95 ->100        -0.25949

 Excited State  14:      Singlet-A      5.4408 eV  227.88 nm  f=0.0327  <S**2>=0.000
      91 -> 97        -0.21168
      92 -> 98        -0.14457
      93 -> 99         0.40791
      94 -> 98         0.17606
      94 -> 99         0.20242
      94 ->100         0.22695
      95 ->100        -0.18766
      95 ->102         0.24963

 Excited State  15:      Singlet-A      5.4965 eV  225.57 nm  f=0.0008  <S**2>=0.000
      93 ->101        -0.30404
      93 ->103         0.12894
      94 ->101         0.52275
      94 ->103        -0.22664
      95 ->101         0.17657

 Excited State  16:      Singlet-A      5.5380 eV  223.88 nm  f=0.0104  <S**2>=0.000
      91 -> 97         0.41023
      94 ->100         0.10177
      94 ->101         0.10023
      94 ->103         0.11932
      95 -> 98         0.16874
      95 -> 99         0.17347
      95 ->101        -0.23989
      95 ->103        -0.35487

 Excited State  17:      Singlet-A      5.5512 eV  223.35 nm  f=0.0139  <S**2>=0.000
      90 -> 97         0.11588
      91 -> 97         0.39377
      94 ->101        -0.12626
      94 ->103        -0.11233
      95 -> 99         0.18674
      95 ->101         0.24135
      95 ->103         0.36856

 Excited State  18:      Singlet-A      5.5657 eV  222.77 nm  f=0.0543  <S**2>=0.000
      90 -> 97         0.52343
      93 ->100        -0.20151
      94 -> 98        -0.22144
      94 -> 99         0.16148
      95 -> 98        -0.19795
      95 ->101        -0.10824
      95 ->103        -0.12011

 Excited State  19:      Singlet-A      5.7104 eV  217.12 nm  f=0.0017  <S**2>=0.000
      96 ->105         0.67664

 Excited State  20:      Singlet-A      5.7271 eV  216.49 nm  f=0.1105  <S**2>=0.000
      90 -> 97         0.23803
      91 -> 97        -0.27323
      93 ->100         0.18157
      94 -> 99        -0.12543
      95 -> 98         0.39957
      95 -> 99         0.32125

 Excited State  21:      Singlet-A      5.7699 eV  214.88 nm  f=0.0360  <S**2>=0.000
      89 -> 97         0.10615
      90 -> 97         0.30483
      91 -> 97         0.18467
      93 -> 98        -0.10060
      93 ->100         0.18501
      93 ->101        -0.20339
      94 -> 98         0.35210
      94 -> 99        -0.17440
      95 -> 99        -0.22155
      95 ->100         0.11213
      95 ->101        -0.10878

 Excited State  22:      Singlet-A      5.7951 eV  213.95 nm  f=0.0046  <S**2>=0.000
      90 -> 97         0.14128
      92 ->103        -0.11675
      93 -> 98        -0.11373
      93 ->101         0.50268
      94 -> 98         0.13063
      94 ->101         0.21618
      95 ->101         0.27046

 Excited State  23:      Singlet-A      5.8591 eV  211.61 nm  f=0.0059  <S**2>=0.000
      89 -> 97         0.32346
      94 -> 98        -0.13046
      95 -> 98         0.13101
      95 -> 99        -0.18127
      96 ->106         0.53012

 Excited State  24:      Singlet-A      5.8769 eV  210.97 nm  f=0.0047  <S**2>=0.000
      89 -> 97         0.15871
      93 -> 98         0.15931
      93 -> 99        -0.12460
      94 -> 98         0.25095
      94 -> 99        -0.16356
      95 -> 98        -0.36683
      95 -> 99         0.40018
      96 ->106         0.18095

 Excited State  25:      Singlet-A      5.8943 eV  210.34 nm  f=0.0059  <S**2>=0.000
      89 -> 97         0.52263
      93 ->102        -0.12506
      96 ->106        -0.38427
      96 ->107         0.14344

 Excited State  26:      Singlet-A      5.9096 eV  209.80 nm  f=0.0010  <S**2>=0.000
      93 -> 98        -0.28579
      93 -> 99        -0.31909
      94 -> 98         0.28765
      94 -> 99         0.45991

 Excited State  27:      Singlet-A      5.9224 eV  209.35 nm  f=0.0037  <S**2>=0.000
      92 ->101        -0.17551
      93 ->103         0.47224
      94 ->103         0.33308
      95 ->103         0.26455

 Excited State  28:      Singlet-A      5.9783 eV  207.39 nm  f=0.1966  <S**2>=0.000
      93 -> 98         0.30814
      94 -> 99         0.13550
      95 ->100         0.55922
      95 ->104        -0.10902

 Excited State  29:      Singlet-A      6.0084 eV  206.35 nm  f=0.1476  <S**2>=0.000
      93 -> 98         0.17900
      93 -> 99        -0.24284
      94 ->100         0.46870
      95 -> 99        -0.12917
      96 ->107        -0.33118

 Excited State  30:      Singlet-A      6.0391 eV  205.30 nm  f=0.0290  <S**2>=0.000
      89 -> 97        -0.10923
      93 ->100         0.21220
      94 ->100         0.27395
      95 ->102        -0.11522
      96 ->107         0.52066

 Excited State  31:      Singlet-A      6.0739 eV  204.13 nm  f=0.1129  <S**2>=0.000
      93 ->100         0.50222
      93 ->104        -0.10421
      94 -> 98        -0.14780
      94 -> 99         0.19566
      94 ->102         0.14736
      95 -> 98        -0.15948
      96 ->107        -0.23423

 Excited State  32:      Singlet-A      6.1715 eV  200.90 nm  f=0.1274  <S**2>=0.000
      92 -> 98        -0.17892
      93 -> 99        -0.27207
      94 -> 98        -0.12121
      94 -> 99        -0.11211
      94 ->104         0.12487
      95 ->102         0.52452

 Excited State  33:      Singlet-A      6.2092 eV  199.68 nm  f=0.0005  <S**2>=0.000
      93 ->101        -0.21005
      93 ->103         0.15116
      94 ->101        -0.25762
      94 ->103         0.18262
      95 ->101         0.46899
      95 ->103        -0.31036

 Excited State  34:      Singlet-A      6.2167 eV  199.44 nm  f=0.0112  <S**2>=0.000
      84 -> 97        -0.10728
      88 -> 97        -0.29870
      94 ->102        -0.13030
      96 ->108         0.51983
      96 ->109         0.15423
      96 ->110        -0.14011
      96 ->111         0.12334

 Excited State  35:      Singlet-A      6.2351 eV  198.85 nm  f=0.1103  <S**2>=0.000
      84 -> 97         0.14773
      86 -> 97        -0.11418
      88 -> 97         0.41898
      92 -> 99        -0.13525
      93 -> 98        -0.10952
      93 ->102         0.16926
      94 ->102        -0.35446
      96 ->108         0.11988

 Excited State  36:      Singlet-A      6.2473 eV  198.46 nm  f=0.0638  <S**2>=0.000
      84 -> 97         0.11833
      86 -> 97        -0.11074
      88 -> 97         0.33245
      92 -> 99         0.14090
      93 -> 98         0.10733
      94 ->102         0.35582
      95 -> 98         0.10465
      96 ->108         0.30470
      96 ->109         0.11925

 Excited State  37:      Singlet-A      6.2933 eV  197.01 nm  f=0.0012  <S**2>=0.000
      93 ->101        -0.16966
      93 ->103        -0.41168
      94 ->101         0.20695
      94 ->103         0.49001

 Excited State  38:      Singlet-A      6.3340 eV  195.74 nm  f=0.0481  <S**2>=0.000
      87 -> 97         0.14286
      89 -> 97         0.14371
      92 -> 98         0.10451
      93 ->102         0.56940
      93 ->103        -0.10822
      94 ->102         0.19935

 Excited State  39:      Singlet-A      6.3760 eV  194.46 nm  f=0.0063  <S**2>=0.000
      96 ->108        -0.15946
      96 ->109         0.57833
      96 ->110         0.24652
      96 ->111         0.19552

 Excited State  40:      Singlet-A      6.4039 eV  193.61 nm  f=0.0009  <S**2>=0.000
      87 -> 97         0.66303
      93 ->102        -0.11135
      96 ->110        -0.12924

 Excited State  41:      Singlet-A      6.4323 eV  192.75 nm  f=0.0018  <S**2>=0.000
      96 ->108         0.22549
      96 ->109        -0.19224
      96 ->110         0.60957

 Excited State  42:      Singlet-A      6.4786 eV  191.38 nm  f=0.0007  <S**2>=0.000
      85 -> 97         0.20560
      86 -> 97         0.58667
      88 -> 97         0.25375

 Excited State  43:      Singlet-A      6.5162 eV  190.27 nm  f=0.0970  <S**2>=0.000
      85 -> 97        -0.18475
      92 -> 99         0.29639
      93 ->104         0.11375
      94 ->102        -0.16113
      94 ->104         0.13351
      95 ->102         0.11083
      95 ->104         0.51264

 Excited State  44:      Singlet-A      6.5708 eV  188.69 nm  f=0.0021  <S**2>=0.000
      85 -> 97         0.51884
      86 -> 97        -0.21869
      92 -> 98         0.18114
      93 ->104        -0.10532
      94 ->104        -0.17430
      95 ->102         0.14066
      95 ->104         0.24732

 Excited State  45:      Singlet-A      6.5775 eV  188.50 nm  f=0.0190  <S**2>=0.000
      85 -> 97         0.30888
      86 -> 97        -0.14659
      92 -> 98        -0.31395
      93 ->102         0.13512
      94 ->102        -0.14971
      94 ->104         0.39400
      95 ->102        -0.15857
      95 ->104        -0.11934

 Excited State  46:      Singlet-A      6.6235 eV  187.19 nm  f=0.0400  <S**2>=0.000
      84 -> 97        -0.15853
      92 -> 98        -0.18338
      92 ->101         0.17601
      93 ->104        -0.14984
      96 ->109        -0.14515
      96 ->111         0.46677
      96 ->112        -0.28946

 Excited State  47:      Singlet-A      6.6326 eV  186.93 nm  f=0.0017  <S**2>=0.000
      81 -> 97         0.12126
      83 -> 97        -0.15150
      84 -> 97         0.54284
      86 -> 97         0.16359
      88 -> 97        -0.17710
      93 ->104        -0.19785
      96 ->111         0.13181

 Excited State  48:      Singlet-A      6.6574 eV  186.24 nm  f=0.0863  <S**2>=0.000
      83 -> 97        -0.17437
      92 -> 98         0.19408
      93 ->104         0.50640
      94 ->104         0.19130
      96 ->111         0.23973

 Excited State  49:      Singlet-A      6.6711 eV  185.85 nm  f=0.2023  <S**2>=0.000
      83 -> 97         0.12528
      92 -> 98         0.28698
      92 -> 99         0.42838
      92 ->100         0.12252
      93 ->104        -0.13377
      94 ->102        -0.10861
      95 ->102         0.12550
      95 ->104        -0.25968
      96 ->111         0.12043

 Excited State  50:      Singlet-A      6.6761 eV  185.71 nm  f=0.1005  <S**2>=0.000
      92 -> 98        -0.17061
      92 -> 99         0.24642
      92 ->100        -0.16279
      92 ->101         0.40393
      93 ->104         0.18999
      94 ->104        -0.28750
      95 ->104        -0.11369
      96 ->112         0.11265

 Excited State  51:      Singlet-A      6.7031 eV  184.97 nm  f=0.0646  <S**2>=0.000
      92 -> 98         0.23842
      92 -> 99        -0.12834
      92 ->101         0.45860
      93 ->104        -0.14459
      94 ->104         0.28984
      96 ->109         0.10230
      96 ->111        -0.15091

 Excited State  52:      Singlet-A      6.7203 eV  184.49 nm  f=0.0088  <S**2>=0.000
      92 -> 99        -0.10243
      92 ->100         0.11023
      96 ->109        -0.11945
      96 ->111         0.27434
      96 ->112         0.54756
      96 ->113        -0.17626

 Excited State  53:      Singlet-A      6.7876 eV  182.66 nm  f=0.0142  <S**2>=0.000
      90 -> 98        -0.13611
      91 -> 99         0.11947
      92 ->100         0.59155
      92 ->101         0.14541
      92 ->103         0.11727
      94 ->104        -0.10507

 Excited State  54:      Singlet-A      6.8317 eV  181.48 nm  f=0.0012  <S**2>=0.000
      80 -> 97        -0.11935
      82 -> 97        -0.24107
      92 ->100        -0.14772
      92 ->103         0.54037
      96 ->113         0.17828

 Excited State  55:      Singlet-A      6.8392 eV  181.28 nm  f=0.0024  <S**2>=0.000
      79 -> 97        -0.10278
      80 -> 97         0.22303
      82 -> 97         0.48397
      83 -> 97         0.24312
      92 ->103         0.27491
      96 ->112        -0.12376
      96 ->113         0.10327

 Excited State  56:      Singlet-A      6.9266 eV  179.00 nm  f=0.0003  <S**2>=0.000
      92 ->103        -0.20136
      96 ->112         0.19923
      96 ->113         0.61148

 Excited State  57:      Singlet-A      6.9451 eV  178.52 nm  f=0.0075  <S**2>=0.000
      80 -> 97         0.27587
      82 -> 97        -0.40155
      83 -> 97         0.41673

 Excited State  58:      Singlet-A      6.9891 eV  177.40 nm  f=0.0096  <S**2>=0.000
      78 -> 97        -0.15173
      80 -> 97         0.37368
      81 -> 97         0.29354
      83 -> 97        -0.24846
      84 -> 97        -0.21813
      90 -> 99        -0.10253
      91 -> 98         0.10249
      92 ->102        -0.20860
      96 ->115         0.10474

 Excited State  59:      Singlet-A      7.0057 eV  176.98 nm  f=0.0074  <S**2>=0.000
      81 -> 97         0.20384
      84 -> 97        -0.11038
      90 -> 99         0.13932
      91 -> 98        -0.14204
      91 -> 99        -0.11644
      92 ->102         0.53705
      92 ->103        -0.10473
      96 ->114         0.13657
      96 ->115         0.11144

 Excited State  60:      Singlet-A      7.0204 eV  176.61 nm  f=0.0026  <S**2>=0.000
      81 -> 97        -0.10099
      92 ->102        -0.13738
      96 ->114         0.58100
      96 ->115         0.26431
      96 ->116         0.12763

 Excited State  61:      Singlet-A      7.0346 eV  176.25 nm  f=0.0008  <S**2>=0.000
      80 -> 97        -0.29966
      81 -> 97         0.53920
      83 -> 97         0.18116
      92 ->102        -0.10849
      96 ->114         0.11940
      96 ->115        -0.15510

 Excited State  62:      Singlet-A      7.0482 eV  175.91 nm  f=0.0007  <S**2>=0.000
      80 -> 97        -0.12757
      81 -> 97         0.10072
      83 -> 97         0.14646
      96 ->114        -0.26578
      96 ->115         0.57548

 Excited State  63:      Singlet-A      7.1368 eV  173.73 nm  f=0.0016  <S**2>=0.000
      90 ->101         0.57965
      90 ->103        -0.24860
      91 ->101         0.20873

 Excited State  64:      Singlet-A      7.1976 eV  172.26 nm  f=0.0018  <S**2>=0.000
      90 ->101        -0.12510
      90 ->103        -0.17178
      91 ->101         0.32486
      91 ->103         0.50308
      95 ->105         0.14223

 Excited State  65:      Singlet-A      7.2540 eV  170.92 nm  f=0.0073  <S**2>=0.000
      77 -> 97         0.10346
      78 -> 97        -0.13142
      79 -> 97        -0.31904
      80 -> 97        -0.11379
      90 -> 98        -0.12181
      92 ->104         0.17438
      95 ->105         0.12576
      96 ->115        -0.11140
      96 ->116         0.44145

 Excited State  66:      Singlet-A      7.2669 eV  170.62 nm  f=0.0056  <S**2>=0.000
      78 -> 97         0.29580
      79 -> 97         0.34166
      80 -> 97         0.17383
      91 -> 99         0.10243
      95 ->105         0.16894
      96 ->116         0.33936

 Excited State  67:      Singlet-A      7.2845 eV  170.20 nm  f=0.0029  <S**2>=0.000
      76 -> 97         0.13666
      78 -> 97         0.49765
      79 -> 97        -0.35020
      82 -> 97        -0.10365
      96 ->116        -0.15309

 Excited State  68:      Singlet-A      7.2908 eV  170.05 nm  f=0.0467  <S**2>=0.000
      79 -> 97        -0.13403
      90 -> 98         0.36316
      90 -> 99        -0.13173
      91 -> 98        -0.12597
      91 -> 99        -0.32554
      92 ->100         0.13100
      92 ->104        -0.18329
      96 ->116         0.23520

 Excited State  69:      Singlet-A      7.3177 eV  169.43 nm  f=0.0431  <S**2>=0.000
      91 -> 98        -0.11257
      91 -> 99        -0.12754
      91 ->103        -0.12194
      95 ->105         0.55929
      95 ->108         0.13461
      96 ->116        -0.15143
      96 ->118         0.15808

 Excited State  70:      Singlet-A      7.3402 eV  168.91 nm  f=0.4202  <S**2>=0.000
      76 -> 97        -0.11770
      89 ->100        -0.11033
      90 -> 98         0.20873
      90 -> 99        -0.28632
      91 -> 98         0.35782
      91 -> 99         0.15508
      92 ->102         0.24104
      95 ->105         0.17813

 Excited State  71:      Singlet-A      7.3662 eV  168.32 nm  f=0.0092  <S**2>=0.000
      93 ->105        -0.37648
      93 ->108         0.12165
      94 ->105         0.49736
      94 ->108        -0.14041

 Excited State  72:      Singlet-A      7.3782 eV  168.04 nm  f=0.0130  <S**2>=0.000
      93 ->105         0.14736
      94 ->105         0.10894
      95 ->105        -0.10486
      96 ->118         0.59404
      96 ->119        -0.10589

 Excited State  73:      Singlet-A      7.4000 eV  167.55 nm  f=0.0063  <S**2>=0.000
      90 ->100        -0.11396
      93 ->105         0.46479
      94 ->105         0.38834
      95 ->106        -0.10383
      96 ->116        -0.12898
      96 ->118        -0.17606

 Excited State  74:      Singlet-A      7.4084 eV  167.36 nm  f=0.0039  <S**2>=0.000
      90 ->100         0.10687
      92 ->104        -0.14648
      93 ->106        -0.16144
      94 ->106        -0.19578
      94 ->107        -0.10213
      95 ->106         0.49871
      95 ->107         0.16763
      95 ->108        -0.11161
      96 ->118        -0.10053

 Excited State  75:      Singlet-A      7.4353 eV  166.75 nm  f=0.0139  <S**2>=0.000
      89 -> 99         0.13245
      90 ->100        -0.28113
      91 ->102        -0.10043
      92 ->104         0.26885
      93 ->105        -0.11049
      95 ->107         0.10640
      96 ->117         0.41625
      96 ->120         0.12186

 Excited State  76:      Singlet-A      7.4538 eV  166.34 nm  f=0.0036  <S**2>=0.000
      89 -> 99        -0.14274
      90 ->100         0.29713
      92 ->104        -0.14574
      93 ->105         0.10286
      94 ->106         0.12085
      96 ->117         0.47133
      96 ->120         0.13301

 Excited State  77:      Singlet-A      7.4588 eV  166.23 nm  f=0.0491  <S**2>=0.000
      89 -> 98         0.22365
      90 -> 99        -0.16098
      90 ->100         0.16130
      90 ->102         0.15087
      91 -> 98        -0.16916

 The electronic state is 1-A.
 Alpha  occ. eigenvalues --  -88.90943 -88.90795 -14.40448 -14.40071 -10.28525
 Alpha  occ. eigenvalues --  -10.28134 -10.24225 -10.24105 -10.22865 -10.22791
 Alpha  occ. eigenvalues --  -10.22362 -10.22143 -10.21153 -10.19560 -10.19496
 Alpha  occ. eigenvalues --  -10.19302 -10.19202 -10.19119 -10.18807 -10.18721
 Alpha  occ. eigenvalues --  -10.18703 -10.18618 -10.18521 -10.16885 -10.16710
 Alpha  occ. eigenvalues --   -7.98567  -7.98422  -5.94849  -5.94713  -5.94486
 Alpha  occ. eigenvalues --   -5.94349  -5.94112  -5.93952  -1.02337  -1.02180
 Alpha  occ. eigenvalues --   -0.88228  -0.88126  -0.85670  -0.84758  -0.82386
 Alpha  occ. eigenvalues --   -0.79290  -0.77864  -0.77582  -0.76135  -0.75299
 Alpha  occ. eigenvalues --   -0.74570  -0.71325  -0.66681  -0.66282  -0.66072
 Alpha  occ. eigenvalues --   -0.63919  -0.62576  -0.61590  -0.60455  -0.57832
 Alpha  occ. eigenvalues --   -0.57293  -0.53801  -0.53189  -0.53104  -0.51021
 Alpha  occ. eigenvalues --   -0.50208  -0.48251  -0.47944  -0.47887  -0.47123
 Alpha  occ. eigenvalues --   -0.46709  -0.46503  -0.45981  -0.45530  -0.44345
 Alpha  occ. eigenvalues --   -0.43958  -0.42568  -0.41875  -0.41074  -0.40895
 Alpha  occ. eigenvalues --   -0.40190  -0.39837  -0.39018  -0.38737  -0.37970
 Alpha  occ. eigenvalues --   -0.37824  -0.37482  -0.37199  -0.36813  -0.36284
 Alpha  occ. eigenvalues --   -0.35934  -0.35750  -0.35573  -0.33133  -0.32395
 Alpha  occ. eigenvalues --   -0.32246  -0.28854  -0.25900  -0.25809  -0.25686
 Alpha  occ. eigenvalues --   -0.19988
 Alpha virt. eigenvalues --   -0.09634  -0.03149  -0.03103  -0.02546  -0.01893
 Alpha virt. eigenvalues --   -0.01464  -0.01226   0.00452   0.03623   0.03948
 Alpha virt. eigenvalues --    0.04598   0.05359   0.05913   0.06249   0.06707

 Mulliken charges:
               1
     1  C   -0.331426
     2  C   -0.057474
     3  C   -0.325913
     4  C    0.202188
     5  C    0.227898
     6  S    0.053911
     7  C    0.022227
     8  C    0.188303
     9  N    0.027717
    10  S    0.018160
    11  C    0.037090
    12  C    0.176900
    13  N    0.021406
    14  C   -0.194630
    15  C   -0.153420
    16  C   -0.128167
    17  C   -0.269782
    18  C   -0.187475
    19  C   -0.150636
    20  C   -0.131923
    21  C   -0.271460
    22  C   -0.124071
    23  C   -0.379839
    24  C   -0.167447
    25  C   -0.380524
    26  H    0.166507
    27  H    0.178636
    28  H    0.157154
    29  H    0.162352
    30  H    0.156555
    31  H    0.157548
    32  H    0.168534
    33  H    0.162890
    34  H    0.157062
    35  H    0.158185
    36  H    0.172899
    37  H    0.153068
    38  H    0.154616
    39  H    0.138278
    40  H    0.139099
    41  H    0.139706
    42  H    0.168592
    43  H    0.159631
    44  H    0.141768
    45  H    0.139228
    46  H    0.146078
 Sum of Mulliken charges =   1.00000

 Dipole moment (field-independent basis, Debye):
    X=              1.1582    Y=              0.3627    Z=              1.2640  Tot=              1.7524
 Quadrupole moment (field-independent basis, Debye-Ang):
   XX=            -55.2337   YY=           -126.4106   ZZ=           -166.0878
   XY=             15.4958   XZ=              1.5969   YZ=              0.9040

 Normal termination of Gaussian 16 at Fri Nov  3 17:02:53 2023.
