 Gaussian 16, Revision C.02,
 Gaussian 16:  ES64L-G16RevC.02  7-Dec-2021

 ------------------------------------------------------------
 # td=(nstates=150) b3lyp/def2TZVP scrf(smd, solvent=ethanol)
 ------------------------------------------------------------

 ---
 A-1
 ---
 Symbolic Z-matrix:
 Charge =  1 Multiplicity = 1

                         Standard orientation:
 ---------------------------------------------------------------------
 Center     Atomic      Atomic             Coordinates (Angstroms)
 Number     Number       Type             X           Y           Z
 ---------------------------------------------------------------------
      1          6           0       -1.259214    0.216698   -0.039367
      2          6           0        0.000003    0.828935   -0.000122
      3          6           0        1.259209    0.216684    0.039249
      4          7           0        2.433464    0.904848    0.145998
      5         16           0       -1.557561   -1.512152    0.053882
      6          6           0       -3.297665   -1.258824   -0.027283
      7          6           0       -3.589904    0.108866   -0.118299
      8          7           0       -2.433474    0.904863   -0.146106
      9         16           0        1.557549   -1.512171   -0.053923
     10          6           0        3.297657   -1.258850    0.027304
     11          6           0        3.589900    0.108842    0.118251
     12          6           0       -4.301571   -2.224422   -0.003624
     13          6           0       -5.624645   -1.792125   -0.066975
     14          6           0       -5.925643   -0.425687   -0.149009
     15          6           0       -4.920394    0.538274   -0.174272
     16          6           0        4.301563   -2.224450    0.003718
     17          6           0        5.624635   -1.792149    0.067066
     18          6           0        5.925635   -0.425707    0.149021
     19          6           0        4.920384    0.538258    0.174213
     20          6           0       -2.510348    2.373529   -0.257226
     21          6           0       -2.566433    3.073786    1.101522
     22          6           0        2.510339    2.373497    0.257299
     23          6           0        2.566508    3.073929   -1.101357
     24          1           0        0.000014    1.909040   -0.000214
     25          1           0       -4.060576   -3.280313    0.063971
     26          1           0       -6.427238   -2.522132   -0.049094
     27          1           0       -6.962056   -0.106514   -0.191342
     28          1           0       -5.176748    1.590213   -0.228130
     29          1           0        4.060566   -3.280345   -0.063815
     30          1           0        6.427230   -2.522156    0.049231
     31          1           0        6.962048   -0.106532    0.191339
     32          1           0        5.176733    1.590201    0.228019
     33          1           0       -1.657488    2.708489   -0.852128
     34          1           0       -3.398115    2.597174   -0.852215
     35          1           0       -3.441185    2.752064    1.674572
     36          1           0       -1.673838    2.863356    1.699082
     37          1           0       -2.634230    4.156364    0.954302
     38          1           0        1.657436    2.708379    0.852183
     39          1           0        3.398074    2.597059    0.852370
     40          1           0        3.441334    2.752344   -1.674368
     41          1           0        1.673988    2.863510   -1.699033
     42          1           0        2.634214    4.156493   -0.953990
 ---------------------------------------------------------------------

 SCF Done:  E(RB3LYP) =  -1641.61145217     A.U. after   12 cycles

 Excitation energies and oscillator strengths:

 Excited State   1:      Singlet-A      3.1483 eV  393.81 nm  f=1.2009  <S**2>=0.000
      89 -> 90         0.70499
 This state for optimization and/or second-order correction.
 Total Energy, E(TD-HF/TD-DFT) =  -1641.49575371
 Copying the excited state density for this state as the 1-particle RhoCI density.

 Excited State   2:      Singlet-A      3.8095 eV  325.46 nm  f=0.0007  <S**2>=0.000
      89 -> 91         0.70105

 Excited State   3:      Singlet-A      4.0679 eV  304.79 nm  f=0.0206  <S**2>=0.000
      88 -> 90         0.60980
      89 -> 92        -0.33505

 Excited State   4:      Singlet-A      4.2013 eV  295.11 nm  f=0.0055  <S**2>=0.000
      87 -> 90         0.63807
      89 -> 93        -0.28294

 Excited State   5:      Singlet-A      4.3694 eV  283.75 nm  f=0.0398  <S**2>=0.000
      88 -> 90         0.32402
      89 -> 92         0.60604

 Excited State   6:      Singlet-A      4.4948 eV  275.84 nm  f=0.0375  <S**2>=0.000
      87 -> 90         0.27984
      89 -> 93         0.62652

 Excited State   7:      Singlet-A      4.5112 eV  274.84 nm  f=0.0004  <S**2>=0.000
      86 -> 90         0.67109
      89 -> 94         0.16175

 Excited State   8:      Singlet-A      4.7606 eV  260.44 nm  f=0.0820  <S**2>=0.000
      86 -> 90        -0.14283
      87 -> 92         0.12012
      88 -> 93         0.10094
      89 -> 94         0.65003

 Excited State   9:      Singlet-A      4.9224 eV  251.88 nm  f=0.0033  <S**2>=0.000
      88 -> 92         0.11098
      89 -> 95         0.67115

 Excited State  10:      Singlet-A      4.9362 eV  251.17 nm  f=0.0000  <S**2>=0.000
      86 -> 91         0.15552
      87 -> 96        -0.10350
      88 -> 91         0.62374
      89 -> 96         0.24802

 Excited State  11:      Singlet-A      5.1247 eV  241.93 nm  f=0.0001  <S**2>=0.000
      86 -> 91         0.23092
      88 -> 91        -0.29103
      89 -> 96         0.59838

 Excited State  12:      Singlet-A      5.1467 eV  240.90 nm  f=0.0076  <S**2>=0.000
      87 -> 91         0.68599
      88 -> 96        -0.12159

 Excited State  13:      Singlet-A      5.3077 eV  233.59 nm  f=0.2443  <S**2>=0.000
      85 -> 90         0.53921
      86 -> 92         0.15412
      87 -> 93        -0.16348
      87 -> 95         0.14119
      88 -> 92        -0.28938
      88 -> 94         0.19798

 Excited State  14:      Singlet-A      5.4232 eV  228.62 nm  f=0.0004  <S**2>=0.000
      86 -> 91         0.64278
      89 -> 96        -0.27202

 Excited State  15:      Singlet-A      5.6221 eV  220.53 nm  f=0.0979  <S**2>=0.000
      85 -> 90         0.40071
      86 -> 92        -0.22627
      86 -> 94        -0.18905
      88 -> 92         0.42391
      88 -> 94        -0.13250
      89 -> 95        -0.14666
      89 -> 98        -0.10540

 Excited State  16:      Singlet-A      5.6307 eV  220.19 nm  f=0.0580  <S**2>=0.000
      83 -> 90         0.10780
      86 -> 92         0.42716
      87 -> 95         0.16808
      88 -> 92         0.41043
      88 -> 94         0.29249

 Excited State  17:      Singlet-A      5.6449 eV  219.64 nm  f=0.1664  <S**2>=0.000
      84 -> 90        -0.16365
      85 -> 92        -0.11028
      86 -> 90         0.10273
      86 -> 93        -0.35595
      86 -> 95        -0.14234
      87 -> 92         0.35901
      87 -> 94        -0.21676
      88 -> 93         0.20557
      88 -> 95        -0.18047
      89 -> 94        -0.16608

 Excited State  18:      Singlet-A      5.7218 eV  216.69 nm  f=0.0713  <S**2>=0.000
      84 -> 90        -0.36027
      86 -> 93         0.25776
      87 -> 94         0.22626
      88 -> 93         0.42276
      88 -> 95         0.21361

 Excited State  19:      Singlet-A      5.7997 eV  213.78 nm  f=0.0032  <S**2>=0.000
      84 -> 90        -0.12442
      86 -> 93         0.17446
      87 -> 92         0.49784
      87 -> 94         0.11429
      88 -> 93        -0.41740
      88 -> 95         0.11014

 Excited State  20:      Singlet-A      5.8444 eV  212.14 nm  f=0.0171  <S**2>=0.000
      89 -> 97         0.68789

 Excited State  21:      Singlet-A      5.8607 eV  211.55 nm  f=0.0035  <S**2>=0.000
      83 -> 90         0.27750
      86 -> 94        -0.10835
      87 -> 93         0.44792
      88 -> 92        -0.16276
      89 -> 98        -0.39969

 Excited State  22:      Singlet-A      5.8950 eV  210.32 nm  f=0.0083  <S**2>=0.000
      83 -> 90         0.12771
      86 -> 94        -0.15841
      87 -> 93         0.34522
      89 -> 98         0.54628
      89 -> 99        -0.10097

 Excited State  23:      Singlet-A      5.9442 eV  208.58 nm  f=0.0017  <S**2>=0.000
      84 -> 90         0.55031
      87 -> 92         0.27308
      87 -> 94         0.12352
      88 -> 93         0.25865

 Excited State  24:      Singlet-A      6.0199 eV  205.96 nm  f=0.2162  <S**2>=0.000
      83 -> 90         0.59407
      86 -> 92        -0.16494
      87 -> 93        -0.31297

 Excited State  25:      Singlet-A      6.0971 eV  203.35 nm  f=0.3856  <S**2>=0.000
      83 -> 90        -0.12954
      86 -> 92        -0.35194
      87 -> 95        -0.13946
      88 -> 94         0.56314

 Excited State  26:      Singlet-A      6.1932 eV  200.19 nm  f=0.0044  <S**2>=0.000
      87 -> 94        -0.47244
      88 -> 95         0.51516

 Excited State  27:      Singlet-A      6.2631 eV  197.96 nm  f=0.0045  <S**2>=0.000
      85 -> 91         0.32386
      89 -> 98         0.10645
      89 -> 99         0.58260
      89 ->101        -0.15110

 Excited State  28:      Singlet-A      6.2940 eV  196.99 nm  f=0.1250  <S**2>=0.000
      85 -> 91        -0.14364
      86 -> 92        -0.23719
      86 -> 94         0.29483
      87 -> 95         0.52145
      89 -> 99         0.10573

 Excited State  29:      Singlet-A      6.3118 eV  196.43 nm  f=0.0024  <S**2>=0.000
      85 -> 92        -0.15660
      86 -> 93         0.48702
      87 -> 94        -0.32429
      88 -> 95        -0.31014

 Excited State  30:      Singlet-A      6.3290 eV  195.90 nm  f=0.0197  <S**2>=0.000
      82 -> 90         0.10297
      85 -> 91         0.55027
      86 -> 96        -0.21624
      87 -> 95         0.13439
      89 -> 99        -0.27401
      89 ->101         0.11713

 Excited State  31:      Singlet-A      6.3921 eV  193.96 nm  f=0.0024  <S**2>=0.000
      82 -> 90        -0.44559
      87 -> 91         0.10365
      88 -> 96         0.50983

 Excited State  32:      Singlet-A      6.4363 eV  192.63 nm  f=0.0476  <S**2>=0.000
      82 -> 90         0.49131
      86 -> 94        -0.23707
      87 -> 95         0.11577
      88 -> 96         0.37715

 Excited State  33:      Singlet-A      6.4532 eV  192.13 nm  f=0.2632  <S**2>=0.000
      82 -> 90         0.17994
      84 -> 92        -0.12091
      85 -> 90         0.11079
      86 -> 94         0.47903
      87 -> 93         0.13676
      87 -> 95        -0.29663
      88 -> 96         0.21674

 Excited State  34:      Singlet-A      6.5256 eV  190.00 nm  f=0.1565  <S**2>=0.000
      83 -> 92         0.10032
      86 -> 95         0.60296
      89 ->100         0.26214

 Excited State  35:      Singlet-A      6.5555 eV  189.13 nm  f=0.0101  <S**2>=0.000
      86 -> 95        -0.23660
      87 -> 96         0.29309
      89 ->100         0.56554

 Excited State  36:      Singlet-A      6.5736 eV  188.61 nm  f=0.0002  <S**2>=0.000
      84 -> 91         0.19469
      87 -> 96         0.58446
      88 -> 91         0.10861
      89 ->100        -0.28901

 Excited State  37:      Singlet-A      6.6547 eV  186.31 nm  f=0.0032  <S**2>=0.000
      89 -> 99         0.17616
      89 ->101         0.64866
      89 ->104         0.16263

 Excited State  38:      Singlet-A      6.6763 eV  185.71 nm  f=0.0023  <S**2>=0.000
      84 -> 91         0.65043
      87 -> 96        -0.21625

 Excited State  39:      Singlet-A      6.7194 eV  184.52 nm  f=0.0057  <S**2>=0.000
      79 -> 90        -0.24884
      81 -> 90         0.63638

 Excited State  40:      Singlet-A      6.7816 eV  182.83 nm  f=0.0010  <S**2>=0.000
      83 -> 91        -0.29692
      85 -> 91         0.17403
      86 -> 96         0.58841
      88 -> 96        -0.13305

 Excited State  41:      Singlet-A      6.8087 eV  182.10 nm  f=0.0099  <S**2>=0.000
      80 -> 90         0.69672

 Excited State  42:      Singlet-A      6.8410 eV  181.24 nm  f=0.0073  <S**2>=0.000
      83 -> 91         0.59551
      84 -> 96         0.10748
      85 -> 91         0.16448
      86 -> 96         0.27976

 Excited State  43:      Singlet-A      6.8680 eV  180.52 nm  f=0.0083  <S**2>=0.000
      78 -> 90         0.11507
      83 -> 94        -0.10519
      84 -> 95         0.11150
      85 -> 92         0.63453
      87 -> 94        -0.13621
      88 -> 95        -0.12329

 Excited State  44:      Singlet-A      6.9017 eV  179.64 nm  f=0.0034  <S**2>=0.000
      76 -> 90        -0.18248
      78 -> 90         0.46555
      79 -> 90         0.41648
      81 -> 90         0.15466

 Excited State  45:      Singlet-A      6.9196 eV  179.18 nm  f=0.0413  <S**2>=0.000
      85 -> 93        -0.22573
      88 -> 97         0.63616

 Excited State  46:      Singlet-A      6.9236 eV  179.08 nm  f=0.0031  <S**2>=0.000
      76 -> 90         0.33498
      78 -> 90         0.46506
      79 -> 90        -0.32332
      89 ->102         0.16750

 Excited State  47:      Singlet-A      6.9596 eV  178.15 nm  f=0.1944  <S**2>=0.000
      84 -> 92        -0.13121
      84 -> 94         0.11680
      85 -> 93         0.59710
      88 -> 97         0.23237

 Excited State  48:      Singlet-A      6.9785 eV  177.67 nm  f=0.0016  <S**2>=0.000
      78 -> 90        -0.10203
      89 ->102         0.54544
      89 ->103         0.39008

 Excited State  49:      Singlet-A      7.0130 eV  176.79 nm  f=0.0035  <S**2>=0.000
      71 -> 90        -0.11727
      76 -> 90         0.51971
      78 -> 90        -0.12583
      79 -> 90         0.23076
      81 -> 90         0.11700
      84 -> 93         0.10410
      89 ->102        -0.19601
      89 ->103         0.19943

 Excited State  50:      Singlet-A      7.0495 eV  175.88 nm  f=0.0026  <S**2>=0.000
      89 ->101        -0.14997
      89 ->104         0.65193
      89 ->105         0.15418

 Excited State  51:      Singlet-A      7.0696 eV  175.38 nm  f=0.0046  <S**2>=0.000
      84 -> 93        -0.11412
      87 -> 97         0.66173

 Excited State  52:      Singlet-A      7.1115 eV  174.34 nm  f=0.0012  <S**2>=0.000
      76 -> 90        -0.11368
      79 -> 90        -0.24359
      81 -> 90        -0.13378
      89 ->102        -0.29530
      89 ->103         0.46717
      89 ->106         0.21713

 Excited State  53:      Singlet-A      7.1219 eV  174.09 nm  f=0.0006  <S**2>=0.000
      77 -> 90         0.68925

 Excited State  54:      Singlet-A      7.1582 eV  173.21 nm  f=0.0224  <S**2>=0.000
      83 -> 92         0.28677
      84 -> 93        -0.25446
      85 -> 94         0.52139
      86 -> 95        -0.10456
      88 -> 98         0.14192

 Excited State  55:      Singlet-A      7.1798 eV  172.68 nm  f=0.1238  <S**2>=0.000
      82 -> 91         0.17595
      83 -> 93        -0.22553
      84 -> 92         0.50325
      85 -> 93         0.13258
      85 -> 95        -0.26817
      86 -> 94         0.13441
      88 -> 97         0.11180

 Excited State  56:      Singlet-A      7.1825 eV  172.62 nm  f=0.0000  <S**2>=0.000
      85 -> 94        -0.11759
      88 -> 98         0.64437
      89 ->106         0.16060

 Excited State  57:      Singlet-A      7.2168 eV  171.80 nm  f=0.0000  <S**2>=0.000
      88 -> 98        -0.17369
      89 ->103        -0.20331
      89 ->106         0.60785
      89 ->110        -0.10011

 Excited State  58:      Singlet-A      7.2599 eV  170.78 nm  f=0.0006  <S**2>=0.000
      74 -> 90        -0.21021
      86 -> 97         0.62129
      89 ->105        -0.16144

 Excited State  59:      Singlet-A      7.3026 eV  169.78 nm  f=0.0006  <S**2>=0.000
      75 -> 90         0.68224

 Excited State  60:      Singlet-A      7.3036 eV  169.76 nm  f=0.0172  <S**2>=0.000
      86 -> 97         0.11079
      87 -> 98        -0.42677
      88 ->100         0.11956
      89 ->105         0.50716

 Excited State  61:      Singlet-A      7.3277 eV  169.20 nm  f=0.0044  <S**2>=0.000
      86 -> 97         0.11633
      87 -> 98         0.52193
      89 ->104        -0.10574
      89 ->105         0.41704

 Excited State  62:      Singlet-A      7.4399 eV  166.65 nm  f=0.4945  <S**2>=0.000
      83 -> 92        -0.34617
      84 -> 93         0.24516
      85 -> 94         0.38237
      86 -> 98         0.27682
      87 -> 97         0.10214

 Excited State  63:      Singlet-A      7.4660 eV  166.07 nm  f=0.0009  <S**2>=0.000
      73 -> 90         0.21052
      74 -> 90         0.41298
      84 -> 92         0.21741
      85 -> 95         0.41032
      86 -> 97         0.11183

 Excited State  64:      Singlet-A      7.4709 eV  165.96 nm  f=0.0195  <S**2>=0.000
      73 -> 90        -0.22630
      74 -> 90        -0.39483
      84 -> 92         0.23775
      85 -> 95         0.41603

 Excited State  65:      Singlet-A      7.4764 eV  165.83 nm  f=0.1525  <S**2>=0.000
      82 -> 92         0.14137
      83 -> 92         0.13455
      84 -> 93        -0.15695
      85 -> 94        -0.14340
      85 -> 96         0.11424
      86 -> 98         0.48494
      86 -> 99        -0.11863
      87 ->100         0.11357
      88 -> 99        -0.27331

 Excited State  66:      Singlet-A      7.4955 eV  165.41 nm  f=0.0107  <S**2>=0.000
      82 -> 92        -0.20220
      83 -> 92         0.12763
      86 -> 98         0.34578
      87 ->100        -0.22856
      88 -> 99         0.48183

 Excited State  67:      Singlet-A      7.5159 eV  164.96 nm  f=0.3903  <S**2>=0.000
      73 -> 90        -0.11893
      82 -> 91        -0.42023
      83 -> 95        -0.19976
      84 -> 92         0.10401
      84 -> 94         0.43471
      85 -> 95        -0.11906

 Excited State  68:      Singlet-A      7.5387 eV  164.46 nm  f=0.0190  <S**2>=0.000
      82 -> 92        -0.12150
      83 -> 92         0.42470
      84 -> 93         0.48901
      88 -> 99        -0.17419

 Excited State  69:      Singlet-A      7.5443 eV  164.34 nm  f=0.0076  <S**2>=0.000
      74 -> 90        -0.12988
      82 -> 93        -0.14624
      84 -> 94         0.11743
      87 -> 99         0.44297
      88 ->100        -0.41049

 Excited State  70:      Singlet-A      7.5925 eV  163.30 nm  f=0.0122  <S**2>=0.000
      83 -> 93         0.16386
      89 ->107         0.65481

 Excited State  71:      Singlet-A      7.5934 eV  163.28 nm  f=0.0084  <S**2>=0.000
      78 -> 93         0.26273
      82 -> 92         0.51287
      83 -> 92         0.12768
      84 -> 93         0.16700
      87 ->100        -0.13658
      88 -> 99         0.19666

 Excited State  72:      Singlet-A      7.5990 eV  163.16 nm  f=0.0010  <S**2>=0.000
      73 -> 90         0.39970
      74 -> 90        -0.14378
      83 -> 93         0.42027
      84 -> 92         0.14549
      85 -> 95        -0.13786
      87 -> 99        -0.13372
      88 ->100         0.13641
      89 ->107        -0.14226

 Excited State  73:      Singlet-A      7.6302 eV  162.49 nm  f=0.0223  <S**2>=0.000
      73 -> 90         0.37635
      74 -> 90        -0.18925
      78 -> 92         0.21695
      82 -> 93         0.29656
      83 -> 93        -0.25242
      84 -> 94         0.14347
      86 -> 97        -0.12710
      89 ->107         0.15933

 Excited State  74:      Singlet-A      7.6462 eV  162.15 nm  f=0.0092  <S**2>=0.000
      72 -> 90         0.15420
      73 -> 90        -0.11896
      78 -> 92         0.27171
      79 -> 92         0.10640
      82 -> 93         0.36409
      83 -> 93         0.31711
      84 -> 92         0.14927
      84 -> 94        -0.17472
      88 ->100        -0.13034

 Excited State  75:      Singlet-A      7.6734 eV  161.58 nm  f=0.0049  <S**2>=0.000
      81 -> 91         0.11470
      85 -> 96         0.58590
      86 -> 98        -0.16949
      86 -> 99        -0.23632

 Excited State  76:      Singlet-A      7.7142 eV  160.72 nm  f=0.0685  <S**2>=0.000
      83 -> 94         0.50389
      84 -> 93         0.10251
      84 -> 95        -0.36392
      85 -> 92         0.11437
      85 -> 96         0.10273

 Excited State  77:      Singlet-A      7.7580 eV  159.82 nm  f=0.0058  <S**2>=0.000
      72 -> 90         0.59859
      78 -> 94         0.11125
      82 -> 91         0.15388
      82 -> 95         0.12466
      84 -> 94         0.15784

 Excited State  78:      Singlet-A      7.7606 eV  159.76 nm  f=0.0003  <S**2>=0.000
      87 ->100        -0.17700
      87 ->102         0.10709
      88 -> 99        -0.12991
      88 ->101         0.45340
      89 ->108        -0.36934
      89 ->110        -0.20132

 Excited State  79:      Singlet-A      7.7791 eV  159.38 nm  f=0.0001  <S**2>=0.000
      85 -> 96        -0.12008
      87 ->100        -0.13520
      88 ->101         0.38219
      89 ->108         0.42205
      89 ->110         0.25407

 Excited State  80:      Singlet-A      7.8219 eV  158.51 nm  f=0.0002  <S**2>=0.000
      71 -> 90        -0.23092
      79 -> 91         0.17494
      81 -> 91         0.31524
      85 -> 96         0.16973
      86 -> 99         0.47600

 Excited State  81:      Singlet-A      7.8322 eV  158.30 nm  f=0.0032  <S**2>=0.000
      72 -> 90        -0.10506
      87 -> 99        -0.37944
      87 ->101         0.41225
      88 ->100        -0.28940
      88 ->102         0.11425
      88 ->103         0.10767
      88 ->106         0.13734
      89 ->109        -0.13047

 Excited State  82:      Singlet-A      7.8333 eV  158.28 nm  f=0.0031  <S**2>=0.000
      69 -> 90         0.12563
      71 -> 90         0.59624
      76 -> 90         0.14837
      86 -> 99         0.20866

 Excited State  83:      Singlet-A      7.8403 eV  158.14 nm  f=0.0769  <S**2>=0.000
      72 -> 90        -0.15748
      73 -> 90        -0.18644
      74 -> 90         0.11807
      82 -> 91         0.40262
      82 -> 93         0.10294
      83 -> 93         0.15092
      83 -> 95         0.12896
      84 -> 94         0.37970

 Excited State  84:      Singlet-A      7.8909 eV  157.12 nm  f=0.0007  <S**2>=0.000
      87 -> 99        -0.14267
      88 ->100        -0.14798
      89 ->109         0.64828

 Excited State  85:      Singlet-A      7.9034 eV  156.87 nm  f=0.0005  <S**2>=0.000
      79 -> 91         0.16636
      81 -> 91         0.47059
      85 -> 96        -0.22402
      86 -> 99        -0.21712
      87 ->100        -0.13060
      88 ->104        -0.10593
      89 ->108        -0.23921
      89 ->110         0.15935

 Excited State  86:      Singlet-A      7.9244 eV  156.46 nm  f=0.0024  <S**2>=0.000
      86 -> 99        -0.12472
      87 ->100         0.46774
      88 -> 98         0.10726
      88 -> 99         0.23635
      88 ->101         0.18905
      88 ->104         0.28643
      89 ->108        -0.10718
      89 ->110         0.12411

 Excited State  87:      Singlet-A      7.9349 eV  156.25 nm  f=0.0063  <S**2>=0.000
      87 -> 98         0.12282
      87 -> 99         0.24827
      87 ->101         0.37148
      87 ->104         0.14465
      88 ->100         0.32121
      88 ->102         0.22004
      88 ->103         0.15743
      88 ->106         0.16162
      89 ->109         0.17808

 Excited State  88:      Singlet-A      7.9400 eV  156.15 nm  f=0.0268  <S**2>=0.000
      82 -> 94        -0.18576
      83 -> 94         0.39737
      84 -> 95         0.50976

 Excited State  89:      Singlet-A      7.9702 eV  155.56 nm  f=0.0030  <S**2>=0.000
      81 -> 91        -0.23358
      86 -> 99         0.20087
      89 ->108        -0.27288
      89 ->110         0.48607
      89 ->111         0.10801
      89 ->113         0.16963

 Excited State  90:      Singlet-A      7.9969 eV  155.04 nm  f=0.0067  <S**2>=0.000
      75 -> 93         0.13167
      77 -> 92         0.14404
      78 -> 95         0.25582
      82 -> 94         0.51547
      83 -> 94         0.12762
      84 -> 95         0.17914

 Excited State  91:      Singlet-A      8.0178 eV  154.64 nm  f=0.0023  <S**2>=0.000
      83 -> 95        -0.10945
      85 -> 99        -0.11973
      86 ->100         0.64020
      89 ->114        -0.10717

 Excited State  92:      Singlet-A      8.0277 eV  154.45 nm  f=0.0008  <S**2>=0.000
      70 -> 90        -0.18253
      72 -> 90         0.11508
      78 -> 94        -0.16774
      82 -> 95        -0.21396
      83 -> 95         0.13709
      89 ->112         0.50769

 Excited State  93:      Singlet-A      8.0418 eV  154.17 nm  f=0.0022  <S**2>=0.000
      70 -> 90         0.16543
      72 -> 90        -0.12357
      75 -> 92         0.11895
      78 -> 94         0.18802
      82 -> 91         0.10093
      82 -> 95         0.24503

 The electronic state is 1-A.
 Alpha  occ. eigenvalues --  -88.91618 -88.91618 -14.40489 -14.40489 -10.29260
 Alpha  occ. eigenvalues --  -10.29259 -10.24562 -10.24562 -10.23206 -10.23205
 Alpha  occ. eigenvalues --  -10.22481 -10.22481 -10.20198 -10.19898 -10.19898
 Alpha  occ. eigenvalues --  -10.19567 -10.19567 -10.19070 -10.19070 -10.18831
 Alpha  occ. eigenvalues --  -10.18830 -10.16990 -10.16990  -7.99223  -7.99223
 Alpha  occ. eigenvalues --   -5.95510  -5.95510  -5.95144  -5.95144  -5.94764
 Alpha  occ. eigenvalues --   -5.94764  -1.02457  -1.02117  -0.88290  -0.88157
 Alpha  occ. eigenvalues --   -0.86144  -0.84040  -0.80954  -0.78110  -0.77713
 Alpha  occ. eigenvalues --   -0.76681  -0.75448  -0.74703  -0.72296  -0.66589
 Alpha  occ. eigenvalues --   -0.66358  -0.66126  -0.63654  -0.61762  -0.61715
 Alpha  occ. eigenvalues --   -0.59559  -0.57217  -0.53906  -0.53363  -0.53205
 Alpha  occ. eigenvalues --   -0.51316  -0.50491  -0.48414  -0.48410  -0.47686
 Alpha  occ. eigenvalues --   -0.46705  -0.46497  -0.46285  -0.46193  -0.44232
 Alpha  occ. eigenvalues --   -0.43925  -0.43866  -0.42568  -0.41085  -0.40906
 Alpha  occ. eigenvalues --   -0.40159  -0.39779  -0.38898  -0.38459  -0.38056
 Alpha  occ. eigenvalues --   -0.37680  -0.37440  -0.36684  -0.36401  -0.36209
 Alpha  occ. eigenvalues --   -0.35752  -0.35195  -0.32893  -0.32356  -0.30536
 Alpha  occ. eigenvalues --   -0.26903  -0.26245  -0.25746  -0.21516
 Alpha virt. eigenvalues --   -0.08551  -0.04210  -0.03647  -0.03077  -0.02198
 Alpha virt. eigenvalues --   -0.01454   0.00664   0.02131   0.02820   0.04644
 Alpha virt. eigenvalues --    0.04891   0.05693   0.06509   0.06824   0.06852

 Mulliken charges:
               1
     1  C    0.146370
     2  C   -0.313328
     3  C    0.146349
     4  N    0.023182
     5  S    0.037825
     6  C    0.038309
     7  C    0.169575
     8  N    0.023174
     9  S    0.037826
    10  C    0.038309
    11  C    0.169572
    12  C   -0.194434
    13  C   -0.150909
    14  C   -0.126231
    15  C   -0.264765
    16  C   -0.194429
    17  C   -0.150908
    18  C   -0.126235
    19  C   -0.264765
    20  C   -0.135139
    21  C   -0.382080
    22  C   -0.135146
    23  C   -0.382084
    24  H    0.204058
    25  H    0.165195
    26  H    0.158498
    27  H    0.159860
    28  H    0.170900
    29  H    0.165196
    30  H    0.158498
    31  H    0.159860
    32  H    0.170905
    33  H    0.156957
    34  H    0.159033
    35  H    0.140928
    36  H    0.141397
    37  H    0.140179
    38  H    0.156959
    39  H    0.159034
    40  H    0.140928
    41  H    0.141398
    42  H    0.140178
 Sum of Mulliken charges =   1.00000

 Dipole moment (field-independent basis, Debye):
    X=              0.0001    Y=              5.2740    Z=              0.0001  Tot=              5.2740
 Quadrupole moment (field-independent basis, Debye-Ang):
   XX=            -71.2255   YY=           -110.4100   ZZ=           -154.1219
   XY=             -0.0003   XZ=              2.1740   YZ=             -0.0005

 Normal termination of Gaussian 16 at Fri Nov  3 16:37:22 2023.
