 Gaussian 16, Revision C.02,
 Gaussian 16:  ES64L-G16RevC.02  7-Dec-2021

 ------------------------------------------------------------
 # td=(nstates=150) b3lyp/def2TZVP scrf(smd, solvent=ethanol)
 ------------------------------------------------------------

 ---
 A-3
 ---
 Symbolic Z-matrix:
 Charge =  1 Multiplicity = 1

                         Standard orientation:
 ---------------------------------------------------------------------
 Center     Atomic      Atomic             Coordinates (Angstroms)
 Number     Number       Type             X           Y           Z
 ---------------------------------------------------------------------
      1          6           0       -2.428041    1.066524   -0.253176
      2          6           0       -1.163701    0.479343   -0.188922
      3          6           0        0.041805    1.173916   -0.256816
      4          6           0        1.286450    0.541332   -0.181046
      5          6           0       -3.632364    0.360929   -0.172103
      6         16           0       -3.731682   -1.381240    0.072853
      7          6           0       -5.492381   -1.316150    0.079346
      8          6           0       -5.937414    0.002523   -0.102460
      9          7           0       -4.878726    0.909623   -0.261587
     10          6           0       -6.386349   -2.371189    0.240698
     11          6           0       -7.751214   -2.085245    0.223608
     12          6           0       -8.201765   -0.770406    0.051330
     13          6           0       -7.306986    0.285734   -0.111525
     14          6           0       -5.109277    2.349928   -0.473641
     15          6           0       -5.164583    3.142776    0.833251
     16          6           0        2.499506    1.229230   -0.203687
     17          6           0        3.822110    0.764058   -0.127091
     18         16           0        5.094002    1.944187    0.172030
     19          6           0        6.326179    0.693711    0.140374
     20          6           0        5.740783   -0.561555   -0.088266
     21          7           0        4.346445   -0.488644   -0.256376
     22          6           0        7.702092    0.835001    0.309547
     23          6           0        8.493059   -0.310930    0.250826
     24          6           0        7.913914   -1.567173    0.028296
     25          6           0        6.538273   -1.709565   -0.142327
     26          6           0        3.573454   -1.678630   -0.651238
     27          6           0        3.111260   -2.522112    0.538719
     28          1           0       -2.480232    2.144966   -0.359543
     29          1           0       -1.101764   -0.604050   -0.075964
     30          1           0        0.014895    2.256753   -0.370616
     31          1           0        1.271155   -0.537990   -0.061902
     32          1           0       -6.030956   -3.387372    0.377927
     33          1           0       -8.467850   -2.890478    0.348789
     34          1           0       -9.267265   -0.563876    0.046694
     35          1           0       -7.675558    1.298131   -0.232690
     36          1           0       -4.320988    2.718242   -1.133807
     37          1           0       -6.043470    2.442277   -1.031819
     38          1           0       -4.221825    3.066705    1.383681
     39          1           0       -5.350379    4.199206    0.614515
     40          1           0       -5.968923    2.780771    1.480961
     41          1           0        2.426074    2.314290   -0.229676
     42          1           0        8.144449    1.810753    0.482525
     43          1           0        9.567045   -0.226720    0.381606
     44          1           0        8.544040   -2.450028   -0.009720
     45          1           0        6.108776   -2.691785   -0.303762
     46          1           0        2.735494   -1.334144   -1.259472
     47          1           0        4.216087   -2.264286   -1.313807
     48          1           0        3.963720   -2.884064    1.121248
     49          1           0        2.464779   -1.951800    1.212975
     50          1           0        2.552692   -3.391803    0.177306
 ---------------------------------------------------------------------

 SCF Done:  E(RB3LYP) =  -1796.48463976     A.U. after   13 cycles

 Excitation energies and oscillator strengths:

 Excited State   1:      Singlet-A      2.2549 eV  549.85 nm  f=2.2811  <S**2>=0.000
     103 ->104         0.70810
 This state for optimization and/or second-order correction.
 Total Energy, E(TD-HF/TD-DFT) =  -1796.40177402
 Copying the excited state density for this state as the 1-particle RhoCI density.

 Excited State   2:      Singlet-A      3.5407 eV  350.17 nm  f=0.0160  <S**2>=0.000
     101 ->104        -0.11799
     102 ->104         0.64221
     103 ->105         0.25555

 Excited State   3:      Singlet-A      3.6937 eV  335.67 nm  f=0.0153  <S**2>=0.000
     101 ->104         0.63909
     103 ->105         0.12318
     103 ->106         0.19185
     103 ->107        -0.14935

 Excited State   4:      Singlet-A      3.7227 eV  333.05 nm  f=0.0108  <S**2>=0.000
     100 ->104         0.64474
     103 ->106         0.17422
     103 ->107         0.19668

 Excited State   5:      Singlet-A      3.9183 eV  316.42 nm  f=0.0929  <S**2>=0.000
     100 ->104        -0.16537
     101 ->104        -0.17268
     103 ->105        -0.19313
     103 ->106         0.61773

 Excited State   6:      Singlet-A      3.9272 eV  315.71 nm  f=0.0296  <S**2>=0.000
     100 ->104        -0.19324
     101 ->104         0.18983
     103 ->105        -0.28151
     103 ->107         0.56688

 Excited State   7:      Singlet-A      3.9725 eV  312.11 nm  f=0.0312  <S**2>=0.000
     102 ->104        -0.20384
     103 ->105         0.45247
     103 ->106         0.13116
     103 ->107         0.22122
     103 ->108        -0.36391
     103 ->109         0.17302

 Excited State   8:      Singlet-A      4.0211 eV  308.33 nm  f=0.0089  <S**2>=0.000
     102 ->104        -0.13156
     103 ->105         0.26885
     103 ->106         0.14729
     103 ->107         0.21984
     103 ->108         0.47988
     103 ->109        -0.28990

 Excited State   9:      Singlet-A      4.0994 eV  302.44 nm  f=0.0004  <S**2>=0.000
     102 ->110         0.10125
     103 ->110         0.69277

 Excited State  10:      Singlet-A      4.2588 eV  291.12 nm  f=0.0210  <S**2>=0.000
      99 ->104        -0.40788
     103 ->108         0.27164
     103 ->109         0.49597

 Excited State  11:      Singlet-A      4.3818 eV  282.95 nm  f=0.0155  <S**2>=0.000
      99 ->104         0.55567
     103 ->108         0.20377
     103 ->109         0.34364

 Excited State  12:      Singlet-A      4.5783 eV  270.81 nm  f=0.0109  <S**2>=0.000
      98 ->104        -0.12178
     103 ->111         0.67685

 Excited State  13:      Singlet-A      5.1090 eV  242.68 nm  f=0.0057  <S**2>=0.000
      98 ->104         0.63815
     100 ->107         0.11390
     102 ->106        -0.10455

 Excited State  14:      Singlet-A      5.1392 eV  241.25 nm  f=0.0387  <S**2>=0.000
      99 ->106        -0.11140
     100 ->106         0.11978
     100 ->107         0.16737
     101 ->106         0.11526
     101 ->107        -0.15276
     102 ->105         0.55940
     102 ->107        -0.12826

 Excited State  15:      Singlet-A      5.2533 eV  236.01 nm  f=0.0047  <S**2>=0.000
      98 ->104         0.20847
      99 ->105        -0.12416
      99 ->107         0.11542
     100 ->105        -0.11662
     100 ->107        -0.12529
     101 ->105        -0.20723
     101 ->107        -0.13244
     101 ->109        -0.10260
     102 ->106         0.49765

 Excited State  16:      Singlet-A      5.3471 eV  231.87 nm  f=0.0117  <S**2>=0.000
      96 ->104        -0.16117
      97 ->104        -0.23136
     100 ->105        -0.21296
     101 ->105         0.15009
     102 ->105         0.15362
     102 ->107         0.51236
     103 ->112        -0.12147

 Excited State  17:      Singlet-A      5.4074 eV  229.29 nm  f=0.0183  <S**2>=0.000
      96 ->104         0.48159
      97 ->104        -0.37099
     100 ->106        -0.10060
     101 ->106         0.10778
     102 ->108         0.13751
     102 ->109         0.10869

 Excited State  18:      Singlet-A      5.4384 eV  227.98 nm  f=0.0346  <S**2>=0.000
      96 ->104         0.30644
      97 ->104         0.46493
     100 ->107        -0.11474
     100 ->108         0.12912
     102 ->105         0.18697
     102 ->107         0.16335
     103 ->112        -0.20468

 Excited State  19:      Singlet-A      5.4482 eV  227.57 nm  f=0.0037  <S**2>=0.000
      96 ->104        -0.18462
     100 ->108         0.47361
     100 ->109        -0.27409
     102 ->108         0.28587
     102 ->109        -0.20665

 Excited State  20:      Singlet-A      5.5071 eV  225.13 nm  f=0.0036  <S**2>=0.000
     101 ->110         0.52373
     102 ->110        -0.38692
     103 ->112         0.14335

 Excited State  21:      Singlet-A      5.5571 eV  223.11 nm  f=0.0255  <S**2>=0.000
      97 ->104         0.18008
     101 ->105         0.18615
     101 ->106         0.10503
     101 ->110        -0.14002
     102 ->107         0.12350
     103 ->112         0.56500
     103 ->113        -0.10170

 Excited State  22:      Singlet-A      5.5833 eV  222.06 nm  f=0.0125  <S**2>=0.000
      96 ->104        -0.22046
     100 ->105         0.34286
     100 ->106        -0.13870
     101 ->105         0.36862
     101 ->106         0.17175
     102 ->108         0.17198
     102 ->109         0.16963

 Excited State  23:      Singlet-A      5.5991 eV  221.44 nm  f=0.0034  <S**2>=0.000
      99 ->108         0.13005
     100 ->105        -0.17688
     100 ->108        -0.32145
     100 ->109         0.18671
     102 ->108         0.45670
     102 ->109        -0.27640

 Excited State  24:      Singlet-A      5.6212 eV  220.57 nm  f=0.1005  <S**2>=0.000
     100 ->105         0.39282
     101 ->105        -0.38889
     102 ->107         0.28170
     102 ->108         0.11334
     102 ->111         0.13957
     103 ->112         0.12688

 Excited State  25:      Singlet-A      5.6752 eV  218.47 nm  f=0.1197  <S**2>=0.000
      96 ->104         0.13075
      99 ->105         0.10844
     100 ->105         0.22804
     100 ->106         0.10394
     100 ->107         0.13137
     101 ->105         0.15815
     101 ->106        -0.22753
     101 ->107         0.22806
     101 ->110        -0.15096
     102 ->106         0.36486
     102 ->109        -0.12969
     102 ->110        -0.20651

 Excited State  26:      Singlet-A      5.6844 eV  218.11 nm  f=0.0049  <S**2>=0.000
      99 ->110        -0.10042
     100 ->107         0.10194
     101 ->110         0.30836
     102 ->110         0.34629
     103 ->113         0.45005

 Excited State  27:      Singlet-A      5.7002 eV  217.51 nm  f=0.0250  <S**2>=0.000
     101 ->106         0.11577
     101 ->107        -0.10550
     101 ->110        -0.23980
     102 ->106        -0.13445
     102 ->110        -0.34338
     103 ->113         0.47705

 Excited State  28:      Singlet-A      5.7389 eV  216.04 nm  f=0.1032  <S**2>=0.000
     100 ->106        -0.16029
     100 ->107        -0.18035
     101 ->106        -0.16101
     101 ->107         0.15252
     102 ->105         0.16554
     102 ->107        -0.11003
     103 ->114         0.50455
     103 ->116        -0.15023

 Excited State  29:      Singlet-A      5.7736 eV  214.74 nm  f=0.1042  <S**2>=0.000
     100 ->106         0.18005
     100 ->107         0.19706
     101 ->106         0.17585
     101 ->107        -0.17257
     102 ->105        -0.19304
     102 ->107         0.13505
     103 ->112        -0.13815
     103 ->113        -0.10811
     103 ->114         0.39937
     103 ->115        -0.18392
     103 ->116        -0.10020

 Excited State  30:      Singlet-A      5.8769 eV  210.97 nm  f=0.0140  <S**2>=0.000
      95 ->104        -0.10610
     103 ->115         0.47974
     103 ->116        -0.47608

 Excited State  31:      Singlet-A      5.9005 eV  210.12 nm  f=0.0033  <S**2>=0.000
     101 ->105        -0.11256
     101 ->106         0.48389
     101 ->107         0.48392

 Excited State  32:      Singlet-A      5.9239 eV  209.29 nm  f=0.0187  <S**2>=0.000
      95 ->104        -0.11426
     100 ->107        -0.10026
     102 ->108        -0.13038
     102 ->109        -0.19663
     103 ->114         0.22278
     103 ->115         0.38727
     103 ->116         0.41172

 Excited State  33:      Singlet-A      5.9331 eV  208.97 nm  f=0.0209  <S**2>=0.000
      99 ->107         0.11005
     100 ->106         0.51578
     100 ->107        -0.20051
     100 ->109         0.12197
     101 ->106        -0.10624
     102 ->108         0.14563
     102 ->109         0.26885

 Excited State  34:      Singlet-A      5.9371 eV  208.83 nm  f=0.0397  <S**2>=0.000
     100 ->105        -0.11333
     100 ->106        -0.20911
     100 ->107         0.43668
     102 ->108         0.16428
     102 ->109         0.29940
     103 ->115         0.15722
     103 ->116         0.16677

 Excited State  35:      Singlet-A      6.0001 eV  206.64 nm  f=0.0367  <S**2>=0.000
      95 ->104         0.18348
      99 ->106         0.26905
     100 ->107         0.16744
     100 ->108         0.15163
     100 ->109         0.24259
     100 ->111         0.14233
     101 ->107        -0.16187
     101 ->108         0.10828
     101 ->109         0.16821
     101 ->111        -0.16213
     102 ->107        -0.17458
     102 ->109        -0.10251
     102 ->111         0.28255

 Excited State  36:      Singlet-A      6.0066 eV  206.41 nm  f=0.0067  <S**2>=0.000
      95 ->104         0.11033
      99 ->105         0.31274
      99 ->107        -0.15923
     100 ->108        -0.15588
     100 ->109        -0.26296
     100 ->111        -0.13452
     101 ->107        -0.10386
     101 ->108         0.11954
     101 ->109         0.18721
     101 ->111        -0.18896
     102 ->106         0.15171
     102 ->108         0.11544
     102 ->109         0.19536
     102 ->111         0.17055

 Excited State  37:      Singlet-A      6.0305 eV  205.59 nm  f=0.0177  <S**2>=0.000
      90 ->104        -0.25131
      91 ->104        -0.15412
      92 ->104        -0.20069
      94 ->104         0.47613
      95 ->104         0.20553
     101 ->109        -0.11261
     102 ->111         0.10426

 Excited State  38:      Singlet-A      6.0462 eV  205.06 nm  f=0.0567  <S**2>=0.000
      90 ->104         0.14271
      92 ->104         0.11996
      94 ->104        -0.27781
      95 ->104         0.35869
      99 ->106        -0.11665
     101 ->108        -0.10945
     101 ->109        -0.16250
     101 ->111         0.12446
     102 ->105        -0.12021
     102 ->109        -0.10640
     102 ->111         0.28168
     103 ->117         0.13678

 Excited State  39:      Singlet-A      6.0853 eV  203.74 nm  f=0.0126  <S**2>=0.000
     103 ->117         0.61230
     103 ->118         0.22140
     103 ->119        -0.11742

 Excited State  40:      Singlet-A      6.1820 eV  200.56 nm  f=0.0816  <S**2>=0.000
      91 ->104         0.17948
      93 ->104         0.22871
      95 ->104        -0.39557
     102 ->111         0.41080

 Excited State  41:      Singlet-A      6.2418 eV  198.64 nm  f=0.0002  <S**2>=0.000
     101 ->108         0.62079
     101 ->109        -0.30989

 Excited State  42:      Singlet-A      6.2683 eV  197.80 nm  f=0.0097  <S**2>=0.000
      93 ->104         0.61431
      95 ->104         0.15023
      99 ->105        -0.11601
     101 ->109         0.10621
     102 ->111        -0.13093
     103 ->118         0.12213

 Excited State  43:      Singlet-A      6.2770 eV  197.52 nm  f=0.0033  <S**2>=0.000
      99 ->105         0.18487
      99 ->107         0.12618
     103 ->117        -0.19252
     103 ->118         0.57544
     103 ->121         0.12050

 Excited State  44:      Singlet-A      6.2828 eV  197.34 nm  f=0.0049  <S**2>=0.000
      89 ->104        -0.17752
      91 ->104         0.35319
      92 ->104         0.37265
      94 ->104         0.32800
      95 ->104         0.15337
     102 ->111        -0.10628
     103 ->118        -0.10157

 Excited State  45:      Singlet-A      6.2987 eV  196.84 nm  f=0.0260  <S**2>=0.000
      93 ->104         0.20465
      99 ->105         0.40444
      99 ->107         0.33002
     100 ->109         0.10171
     101 ->109        -0.17862
     102 ->109        -0.10567
     103 ->118        -0.22729

 Excited State  46:      Singlet-A      6.3431 eV  195.46 nm  f=0.0204  <S**2>=0.000
      91 ->104         0.18468
      92 ->104        -0.19213
      99 ->106        -0.13468
      99 ->107         0.26427
     101 ->108         0.17126
     101 ->109         0.39243
     101 ->111         0.35059

 Excited State  47:      Singlet-A      6.3595 eV  194.96 nm  f=0.0179  <S**2>=0.000
      89 ->104        -0.12630
      91 ->104         0.41230
      92 ->104        -0.40759
      94 ->104        -0.10111
      95 ->104         0.11261
     101 ->109        -0.16528
     101 ->111        -0.21033

 Excited State  48:      Singlet-A      6.3787 eV  194.37 nm  f=0.0001  <S**2>=0.000
     100 ->110         0.70392

 Excited State  49:      Singlet-A      6.4084 eV  193.47 nm  f=0.2699  <S**2>=0.000
      99 ->105        -0.14469
      99 ->106         0.36603
      99 ->107         0.28539
      99 ->109         0.10282
     100 ->108        -0.20616
     100 ->109        -0.34473
     100 ->111         0.15271

 Excited State  50:      Singlet-A      6.4198 eV  193.13 nm  f=0.0029  <S**2>=0.000
      98 ->108         0.13680
      99 ->107         0.12740
      99 ->108         0.44889
      99 ->109        -0.24362
     102 ->108        -0.12914
     103 ->119        -0.25807
     103 ->120         0.27967

 Excited State  51:      Singlet-A      6.4453 eV  192.36 nm  f=0.0803  <S**2>=0.000
      90 ->104         0.40017
      92 ->104        -0.13260
      94 ->104         0.15241
      99 ->106        -0.21334
      99 ->107         0.14422
      99 ->108        -0.22506
      99 ->109         0.10362
     101 ->111        -0.20936
     103 ->119        -0.21286
     103 ->120         0.13254

 Excited State  52:      Singlet-A      6.4505 eV  192.21 nm  f=0.0004  <S**2>=0.000
      90 ->104         0.31565
      92 ->104        -0.15352
      99 ->108         0.22548
      99 ->109        -0.10489
     100 ->109        -0.11963
     100 ->111         0.20654
     103 ->119         0.37926
     103 ->120        -0.21493

 Excited State  53:      Singlet-A      6.4717 eV  191.58 nm  f=0.2448  <S**2>=0.000
      90 ->104         0.27345
      92 ->104        -0.18686
      99 ->105         0.13058
      99 ->106         0.32865
      99 ->107        -0.20409
     100 ->111        -0.12065
     101 ->111         0.32686
     103 ->119        -0.14521
     103 ->120         0.10678

 Excited State  54:      Singlet-A      6.4883 eV  191.09 nm  f=0.0633  <S**2>=0.000
      99 ->105         0.15926
      99 ->107        -0.18621
     100 ->111         0.55629
     103 ->119        -0.19886

 Excited State  55:      Singlet-A      6.5163 eV  190.27 nm  f=0.0053  <S**2>=0.000
      89 ->104        -0.16925
      99 ->110        -0.13114
     103 ->119         0.31075
     103 ->120         0.48733
     103 ->121         0.18374

 Excited State  56:      Singlet-A      6.5503 eV  189.28 nm  f=0.0042  <S**2>=0.000
      85 ->104         0.16061
      86 ->104         0.14869
      87 ->104        -0.12632
      89 ->104         0.50386
      91 ->104         0.26912
      99 ->110        -0.12971
     100 ->111         0.11131
     103 ->120         0.13752

 Excited State  57:      Singlet-A      6.5731 eV  188.62 nm  f=0.0014  <S**2>=0.000
      98 ->110        -0.18305
      99 ->110         0.61558
     102 ->110         0.15516
     103 ->120         0.12035
     103 ->121         0.12516

 Excited State  58:      Singlet-A      6.6619 eV  186.11 nm  f=0.0008  <S**2>=0.000
      84 ->104        -0.10854
      86 ->104        -0.13189
      87 ->104         0.18483
      88 ->104         0.32708
     103 ->119        -0.10833
     103 ->120        -0.17594
     103 ->121         0.43667
     103 ->123         0.21840

 Excited State  59:      Singlet-A      6.6739 eV  185.77 nm  f=0.0021  <S**2>=0.000
      84 ->104        -0.12897
      86 ->104        -0.14996
      87 ->104         0.22670
      88 ->104         0.42030
     103 ->121        -0.35080
     103 ->123        -0.24065

 Excited State  60:      Singlet-A      6.7144 eV  184.65 nm  f=0.0861  <S**2>=0.000
      96 ->107         0.13709
      97 ->106         0.10652
      99 ->108         0.30374
      99 ->109         0.56263

 Excited State  61:      Singlet-A      6.7268 eV  184.31 nm  f=0.0057  <S**2>=0.000
     103 ->121        -0.29029
     103 ->123         0.58419
     103 ->124        -0.12331
     103 ->125         0.10937

 Excited State  62:      Singlet-A      6.7920 eV  182.54 nm  f=0.0004  <S**2>=0.000
      87 ->104         0.52292
      88 ->104        -0.29492
      89 ->104         0.19272
      90 ->104        -0.11941
      99 ->111         0.14500
     102 ->112        -0.16637

 Excited State  63:      Singlet-A      6.8137 eV  181.96 nm  f=0.0013  <S**2>=0.000
      98 ->105         0.19779
     103 ->122         0.64496

 Excited State  64:      Singlet-A      6.8504 eV  180.99 nm  f=0.0002  <S**2>=0.000
      84 ->104         0.10358
      86 ->104         0.55970
      87 ->104         0.22679
      88 ->104         0.14571
      89 ->104        -0.12140
      99 ->111        -0.18112
     102 ->112         0.12257

 Excited State  65:      Singlet-A      6.8941 eV  179.84 nm  f=0.0232  <S**2>=0.000
      85 ->104        -0.12193
      98 ->105         0.48984
     103 ->122        -0.19314
     103 ->124        -0.37840

 Excited State  66:      Singlet-A      6.9033 eV  179.60 nm  f=0.0053  <S**2>=0.000
      85 ->104         0.17653
      86 ->104         0.18364
      88 ->104         0.10010
      89 ->104        -0.13029
      96 ->106         0.11899
      97 ->106        -0.13169
      97 ->107         0.16334
      99 ->111         0.52697

 Excited State  67:      Singlet-A      6.9362 eV  178.75 nm  f=0.0016  <S**2>=0.000
      84 ->104        -0.14291
      85 ->104         0.55757
      88 ->104        -0.13839
      89 ->104        -0.15001
      99 ->111        -0.15017
     102 ->112        -0.13827
     103 ->124        -0.11471

 Excited State  68:      Singlet-A      6.9453 eV  178.52 nm  f=0.0132  <S**2>=0.000
      98 ->105         0.29396
     103 ->123         0.13052
     103 ->124         0.48585
     103 ->125        -0.30234

 Excited State  69:      Singlet-A      7.0145 eV  176.75 nm  f=0.0056  <S**2>=0.000
      84 ->104        -0.18746
      96 ->108         0.10856
      98 ->105         0.16336
     103 ->124         0.23701
     103 ->125         0.53974

 Excited State  70:      Singlet-A      7.0405 eV  176.10 nm  f=0.0049  <S**2>=0.000
      82 ->104         0.10098
      84 ->104         0.50946
      85 ->104         0.14511
      86 ->104        -0.15848
      98 ->105         0.16314
      98 ->106         0.10590
      98 ->107        -0.11792
     102 ->112         0.12274
     102 ->113         0.10317
     102 ->114        -0.10719
     102 ->115         0.10818
     103 ->125         0.16700

 Excited State  71:      Singlet-A      7.0594 eV  175.63 nm  f=0.0378  <S**2>=0.000
      84 ->104        -0.14536
      97 ->105         0.27046
      98 ->106         0.47830
      98 ->107        -0.31251

 Excited State  72:      Singlet-A      7.0643 eV  175.51 nm  f=0.0311  <S**2>=0.000
      96 ->105         0.27236
      96 ->109        -0.14696
      98 ->106         0.32405
      98 ->107         0.48918

 Excited State  73:      Singlet-A      7.0912 eV  174.84 nm  f=0.0005  <S**2>=0.000
      96 ->108         0.51859
      96 ->109        -0.28909
      97 ->108         0.14801
      98 ->108        -0.18338
     103 ->125        -0.13553

 Excited State  74:      Singlet-A      7.1238 eV  174.04 nm  f=0.0084  <S**2>=0.000
      84 ->104        -0.12637
      88 ->104        -0.16461
     102 ->112         0.58650
     102 ->113        -0.15321
     103 ->126         0.11653

 Excited State  75:      Singlet-A      7.1290 eV  173.91 nm  f=0.0007  <S**2>=0.000
      84 ->104         0.10234
     102 ->112        -0.12996
     103 ->123         0.10507
     103 ->126         0.63338

 Excited State  76:      Singlet-A      7.1577 eV  173.22 nm  f=0.0115  <S**2>=0.000
      96 ->110        -0.11558
      97 ->105        -0.18915
      97 ->106        -0.10913
      97 ->110         0.52580

 The electronic state is 1-A.
 Alpha  occ. eigenvalues --  -88.90955 -88.90763 -14.40333 -14.39995 -10.28462
 Alpha  occ. eigenvalues --  -10.28068 -10.24341 -10.24216 -10.22966 -10.22876
 Alpha  occ. eigenvalues --  -10.22345 -10.22182 -10.20460 -10.20449 -10.19666
 Alpha  occ. eigenvalues --  -10.19591 -10.19418 -10.19310 -10.19074 -10.18922
 Alpha  occ. eigenvalues --  -10.18824 -10.18718 -10.18697 -10.18612 -10.17990
 Alpha  occ. eigenvalues --  -10.16931 -10.16799  -7.98559  -7.98369  -5.94842
 Alpha  occ. eigenvalues --   -5.94661  -5.94482  -5.94299  -5.94103  -5.93898
 Alpha  occ. eigenvalues --   -1.01892  -1.01750  -0.87950  -0.87845  -0.85252
 Alpha  occ. eigenvalues --   -0.84780  -0.82933  -0.80543  -0.78162  -0.77540
 Alpha  occ. eigenvalues --   -0.77115  -0.75460  -0.74971  -0.74049  -0.70827
 Alpha  occ. eigenvalues --   -0.66728  -0.66112  -0.65958  -0.63707  -0.62812
 Alpha  occ. eigenvalues --   -0.61559  -0.60670  -0.58388  -0.57269  -0.56560
 Alpha  occ. eigenvalues --   -0.53068  -0.52967  -0.52613  -0.51598  -0.49930
 Alpha  occ. eigenvalues --   -0.49222  -0.47673  -0.47650  -0.46913  -0.46722
 Alpha  occ. eigenvalues --   -0.46297  -0.46174  -0.45418  -0.44262  -0.44086
 Alpha  occ. eigenvalues --   -0.43782  -0.42372  -0.41374  -0.40841  -0.40784
 Alpha  occ. eigenvalues --   -0.40190  -0.39733  -0.39192  -0.38496  -0.38047
 Alpha  occ. eigenvalues --   -0.37686  -0.37583  -0.37274  -0.37159  -0.36564
 Alpha  occ. eigenvalues --   -0.36076  -0.35827  -0.35694  -0.35497  -0.34516
 Alpha  occ. eigenvalues --   -0.32268  -0.32188  -0.30717  -0.27758  -0.25767
 Alpha  occ. eigenvalues --   -0.25656  -0.24678  -0.19157
 Alpha virt. eigenvalues --   -0.10346  -0.03685  -0.03150  -0.03091  -0.01798
 Alpha virt. eigenvalues --   -0.01702  -0.01294  -0.00769   0.03244   0.04013
 Alpha virt. eigenvalues --    0.04285   0.04808   0.05052   0.05620   0.06135

 Mulliken charges:
               1
     1  C   -0.321663
     2  C   -0.049072
     3  C   -0.272592
     4  C   -0.031836
     5  C    0.228003
     6  S    0.023852
     7  C    0.034407
     8  C    0.176700
     9  N    0.020550
    10  C   -0.188727
    11  C   -0.156861
    12  C   -0.126609
    13  C   -0.273981
    14  C   -0.126853
    15  C   -0.380727
    16  C   -0.334614
    17  C    0.217866
    18  S    0.054621
    19  C    0.019439
    20  C    0.184839
    21  N    0.026084
    22  C   -0.185449
    23  C   -0.153192
    24  C   -0.130575
    25  C   -0.273213
    26  C   -0.162783
    27  C   -0.383356
    28  H    0.166443
    29  H    0.151339
    30  H    0.139197
    31  H    0.171896
    32  H    0.163147
    33  H    0.156974
    34  H    0.158290
    35  H    0.169226
    36  H    0.153239
    37  H    0.154667
    38  H    0.139964
    39  H    0.138508
    40  H    0.138856
    41  H    0.158689
    42  H    0.163574
    43  H    0.157566
    44  H    0.158968
    45  H    0.174051
    46  H    0.166321
    47  H    0.158721
    48  H    0.145559
    49  H    0.140870
    50  H    0.139675
 Sum of Mulliken charges =   1.00000

 Dipole moment (field-independent basis, Debye):
    X=             -1.0090    Y=              0.0287    Z=             -1.0492  Tot=              1.4560
 Quadrupole moment (field-independent basis, Debye-Ang):
   XX=            -16.4040   YY=           -137.3419   ZZ=           -180.0965
   XY=            -21.2621   XZ=              1.1600   YZ=             -0.8787

 Normal termination of Gaussian 16 at Fri Nov  3 17:16:26 2023.
