 Gaussian 16, Revision C.02,
 Gaussian 16:  ES64L-G16RevC.02  7-Dec-2021

 ------------------------------------------------------------
 # td=(nstates=150) b3lyp/def2TZVP scrf(smd, solvent=ethanol)
 ------------------------------------------------------------

 ---
 A-4
 ---
 Symbolic Z-matrix:
 Charge =  1 Multiplicity = 1

                         Standard orientation:
 ---------------------------------------------------------------------
 Center     Atomic      Atomic             Coordinates (Angstroms)
 Number     Number       Type             X           Y           Z
 ---------------------------------------------------------------------
      1          6           0       -3.663712   -1.051948   -0.111557
      2          6           0       -2.389638   -0.479979   -0.083458
      3          6           0       -1.194967   -1.195004   -0.064041
      4          6           0        0.058349   -0.578322   -0.035613
      5          6           0       -4.855344   -0.323764   -0.124892
      6         16           0       -4.926662    1.436711   -0.060618
      7          6           0       -6.688233    1.402029   -0.083292
      8          6           0       -7.154955    0.079357   -0.139452
      9          7           0       -6.111858   -0.857268   -0.183590
     10          6           0       -7.565153    2.482703   -0.048916
     11          6           0       -8.934956    2.220220   -0.065794
     12          6           0       -9.407072    0.902760   -0.113224
     13          6           0       -8.529361   -0.179533   -0.148820
     14          6           0       -6.366284   -2.306872   -0.248314
     15          6           0       -6.467137   -2.955883    1.133259
     16          6           0        1.282162   -1.246091   -0.016052
     17          6           0        2.511127   -0.582889    0.011938
     18          6           0        3.741215   -1.244345   -0.008435
     19          6           0        5.052439   -0.749020    0.008808
     20         16           0        6.362590   -1.866987   -0.365292
     21          6           0        7.562983   -0.600806   -0.165520
     22          6           0        6.941017    0.612357    0.169846
     23          7           0        5.544832    0.495298    0.283261
     24          6           0        8.946272   -0.695535   -0.302110
     25          6           0        9.708364    0.454142   -0.100703
     26          6           0        9.092982    1.668657    0.228770
     27          6           0        7.709445    1.764545    0.366500
     28          6           0        4.732809    1.623027    0.770139
     29          6           0        4.282282    2.569892   -0.344236
     30          1           0       -3.731831   -2.134826   -0.113428
     31          1           0       -2.310249    0.607987   -0.076294
     32          1           0       -1.237617   -2.283434   -0.072611
     33          1           0        0.079156    0.512977   -0.027655
     34          1           0       -7.192939    3.501353   -0.008437
     35          1           0       -9.638205    3.046285   -0.038434
     36          1           0      -10.476042    0.714855   -0.119701
     37          1           0       -8.914544   -1.192671   -0.174894
     38          1           0       -7.289207   -2.442036   -0.816617
     39          1           0       -5.570728   -2.757498   -0.845647
     40          1           0       -6.666359   -4.026758    1.023381
     41          1           0       -5.536643   -2.835556    1.696522
     42          1           0       -7.280055   -2.514652    1.717995
     43          1           0        1.279871   -2.335280   -0.024232
     44          1           0        2.472390    0.502280    0.013643
     45          1           0        3.691082   -2.326769   -0.105404
     46          1           0        9.416627   -1.639291   -0.558710
     47          1           0       10.787594    0.405440   -0.203502
     48          1           0        9.700309    2.555856    0.377290
     49          1           0        7.251286    2.716142    0.611187
     50          1           0        3.887111    1.202637    1.316886
     51          1           0        5.342782    2.154926    1.505154
     52          1           0        3.668719    2.054906   -1.089954
     53          1           0        3.692500    3.387191    0.083941
     54          1           0        5.141488    3.005946   -0.862588
 ---------------------------------------------------------------------

 SCF Done:  E(RB3LYP) =  -1873.92282437     A.U. after   13 cycles

 Excitation energies and oscillator strengths:

 Excited State   1:      Singlet-A      2.0154 eV  615.17 nm  f=2.8146  <S**2>=0.000
     110 -> 111        0.70914
     110 <- 111       -0.10815
 This state for optimization and/or second-order correction.
 Total Energy, E(TD-HF/TD-DFT) =  -1873.84875832
 Copying the excited state density for this state as the 1-particle RhoCI density.

 Excited State   2:      Singlet-A      3.1644 eV  391.81 nm  f=0.0071  <S**2>=0.000
     109 -> 111        0.62305
     110 -> 112       -0.32998

 Excited State   3:      Singlet-A      3.5829 eV  346.05 nm  f=0.0455  <S**2>=0.000
     108 -> 111        0.62038
     110 -> 112        0.23150
     110 -> 113        0.10824
     110 -> 114        0.17706

 Excited State   4:      Singlet-A      3.6210 eV  342.41 nm  f=0.0081  <S**2>=0.000
     107 -> 111        0.64656
     110 -> 113       -0.21647
     110 -> 114        0.14754

 Excited State   5:      Singlet-A      3.6463 eV  340.02 nm  f=0.0884  <S**2>=0.000
     108 -> 111       -0.20978
     109 -> 111        0.30880
     110 -> 112        0.56594
     110 -> 113       -0.10688

 Excited State   6:      Singlet-A      3.7946 eV  326.74 nm  f=0.0432  <S**2>=0.000
     108 -> 111       -0.24367
     110 -> 113        0.43055
     110 -> 114        0.48800

 Excited State   7:      Singlet-A      3.8067 eV  325.70 nm  f=0.0130  <S**2>=0.000
     107 -> 111        0.25707
     110 -> 113        0.47387
     110 -> 114       -0.43062
     110 -> 116        0.10419

 Excited State   8:      Singlet-A      3.9098 eV  317.11 nm  f=0.0001  <S**2>=0.000
     109 -> 116       -0.11665
     110 -> 115       -0.25342
     110 -> 116        0.63272

 Excited State   9:      Singlet-A      3.9998 eV  309.97 nm  f=0.0064  <S**2>=0.000
     106 -> 111        0.62818
     110 -> 115        0.25188
     110 -> 116        0.13903

 Excited State  10:      Singlet-A      4.0117 eV  309.06 nm  f=0.0002  <S**2>=0.000
     109 -> 117        0.12188
     110 -> 117        0.68941

 Excited State  11:      Singlet-A      4.1565 eV  298.29 nm  f=0.0148  <S**2>=0.000
     106 -> 111       -0.26292
     109 -> 112       -0.11313
     110 -> 115        0.59129
     110 -> 116        0.21918

 Excited State  12:      Singlet-A      4.3163 eV  287.25 nm  f=0.0024  <S**2>=0.000
     105 -> 111        0.15481
     110 -> 118        0.67144

 Excited State  13:      Singlet-A      4.6808 eV  264.88 nm  f=0.0005  <S**2>=0.000
     105 -> 111        0.63477
     109 -> 112        0.21121
     110 -> 118       -0.11844

 Excited State  14:      Singlet-A      4.7060 eV  263.46 nm  f=0.0109  <S**2>=0.000
     105 -> 111       -0.21638
     109 -> 112        0.60084
     110 -> 119        0.19671

 Excited State  15:      Singlet-A      5.0456 eV  245.73 nm  f=0.0015  <S**2>=0.000
     106 -> 114       -0.13152
     108 -> 112        0.31302
     108 -> 114       -0.10496
     108 -> 115        0.11561
     108 -> 118        0.11750
     109 -> 113        0.42522
     109 -> 114        0.34374

 Excited State  16:      Singlet-A      5.0762 eV  244.25 nm  f=0.0011  <S**2>=0.000
     106 -> 113       -0.12728
     107 -> 112        0.28240
     107 -> 115       -0.14928
     109 -> 113       -0.34306
     109 -> 114        0.40080
     110 -> 119       -0.20863

 Excited State  17:      Singlet-A      5.1549 eV  240.52 nm  f=0.0079  <S**2>=0.000
     102 -> 111        0.17528
     104 -> 111        0.18786
     109 -> 112       -0.15018
     109 -> 114        0.21995
     110 -> 119        0.57601

 Excited State  18:      Singlet-A      5.2854 eV  234.58 nm  f=0.0250  <S**2>=0.000
     103 -> 111        0.38004
     104 -> 111        0.38049
     107 -> 113        0.11820
     108 -> 112        0.15251
     108 -> 114        0.12719
     109 -> 115       -0.28042

 Excited State  19:      Singlet-A      5.3045 eV  233.73 nm  f=0.0054  <S**2>=0.000
     103 -> 111        0.17716
     104 -> 111       -0.26392
     106 -> 116        0.10746
     107 -> 112        0.17207
     107 -> 116        0.17620
     108 -> 112       -0.23051
     109 -> 113        0.14966
     109 -> 115       -0.13213
     109 -> 116        0.41326

 Excited State  20:      Singlet-A      5.3061 eV  233.66 nm  f=0.0375  <S**2>=0.000
     104 -> 111       -0.27424
     108 -> 112        0.52981
     109 -> 113       -0.16883
     109 -> 114       -0.22493
     109 -> 116        0.11528

 Excited State  21:      Singlet-A      5.3154 eV  233.25 nm  f=0.0077  <S**2>=0.000
     102 -> 111        0.11943
     103 -> 111        0.40936
     104 -> 111       -0.22455
     106 -> 116       -0.10173
     107 -> 112        0.19478
     107 -> 116       -0.13983
     109 -> 113        0.10209
     109 -> 116       -0.37482

 Excited State  22:      Singlet-A      5.3262 eV  232.78 nm  f=0.0731  <S**2>=0.000
     104 -> 111        0.21469
     107 -> 112        0.54823
     107 -> 113       -0.11679
     109 -> 113        0.13965
     109 -> 114       -0.16864
     109 -> 115        0.12707
     109 -> 118       -0.11876

 Excited State  23:      Singlet-A      5.3773 eV  230.57 nm  f=0.0005  <S**2>=0.000
     106 -> 117       -0.15605
     108 -> 117        0.27173
     109 -> 117        0.60376
     110 -> 117       -0.12765

 Excited State  24:      Singlet-A      5.4697 eV  226.68 nm  f=0.0520  <S**2>=0.000
     102 -> 111        0.16515
     103 -> 111        0.28656
     104 -> 111        0.14304
     106 -> 112       -0.24955
     107 -> 113       -0.15351
     107 -> 114        0.10808
     107 -> 116        0.11431
     108 -> 113       -0.13026
     108 -> 114       -0.18564
     109 -> 113       -0.25108
     109 -> 115        0.27178
     109 -> 116        0.11811

 Excited State  25:      Singlet-A      5.4911 eV  225.79 nm  f=0.0023  <S**2>=0.000
     102 -> 111        0.48100
     103 -> 111       -0.18354
     104 -> 111        0.14859
     107 -> 116       -0.16347
     109 -> 115       -0.15275
     109 -> 118        0.22887
     110 -> 119       -0.11074
     110 -> 120       -0.17389

 Excited State  26:      Singlet-A      5.5171 eV  224.73 nm  f=0.0052  <S**2>=0.000
     107 -> 115       -0.20426
     107 -> 116        0.57889
     109 -> 116       -0.24364

 Excited State  27:      Singlet-A      5.5560 eV  223.15 nm  f=0.0117  <S**2>=0.000
     106 -> 112       -0.10506
     108 -> 114       -0.12733
     109 -> 118        0.19494
     110 -> 120        0.58225
     110 -> 125        0.10079

 Excited State  28:      Singlet-A      5.5993 eV  221.43 nm  f=0.1458  <S**2>=0.000
     102 -> 111       -0.27768
     106 -> 113       -0.11607
     107 -> 113        0.15910
     107 -> 114       -0.12262
     108 -> 113       -0.15018
     108 -> 114       -0.22778
     108 -> 117       -0.11847
     109 -> 112       -0.12068
     109 -> 114       -0.15686
     109 -> 118        0.13835
     110 -> 119        0.12267
     110 -> 120       -0.18169
     110 -> 121        0.33520

 Excited State  29:      Singlet-A      5.6059 eV  221.17 nm  f=0.0472  <S**2>=0.000
     106 -> 112        0.30487
     107 -> 113        0.10119
     108 -> 117        0.40099
     109 -> 115        0.25194
     109 -> 117       -0.17637
     109 -> 118        0.10447
     110 -> 121       -0.17277
     110 -> 122        0.11553

 Excited State  30:      Singlet-A      5.6122 eV  220.92 nm  f=0.0117  <S**2>=0.000
     106 -> 112       -0.31649
     108 -> 117        0.46873
     109 -> 115       -0.25124
     109 -> 117       -0.20056
     110 -> 121        0.13766

 Excited State  31:      Singlet-A      5.6393 eV  219.86 nm  f=0.0099  <S**2>=0.000
     102 -> 111        0.13298
     106 -> 112        0.15655
     108 -> 114        0.14648
     109 -> 115        0.19513
     110 -> 120        0.20948
     110 -> 121        0.52205
     110 -> 123       -0.10890

 Excited State  32:      Singlet-A      5.7010 eV  217.48 nm  f=0.0082  <S**2>=0.000
     110 -> 122        0.63929
     110 -> 123       -0.15147

 Excited State  33:      Singlet-A      5.7864 eV  214.27 nm  f=0.0011  <S**2>=0.000
     110 -> 121        0.12925
     110 -> 123        0.41925
     110 -> 124        0.51156

 Excited State  34:      Singlet-A      5.8021 eV  213.69 nm  f=0.0198  <S**2>=0.000
     107 -> 113       -0.10759
     110 -> 122        0.11445
     110 -> 123        0.48973
     110 -> 124       -0.41388

 Excited State  35:      Singlet-A      5.8219 eV  212.96 nm  f=0.1545  <S**2>=0.000
     102 -> 111       -0.14503
     105 -> 112        0.13349
     106 -> 112        0.10483
     107 -> 113       -0.23680
     107 -> 114        0.16250
     108 -> 113        0.12813
     108 -> 114        0.17552
     109 -> 118        0.50406

 Excited State  36:      Singlet-A      5.8386 eV  212.35 nm  f=0.0316  <S**2>=0.000
     106 -> 112       -0.18328
     106 -> 114       -0.19912
     107 -> 113        0.21519
     107 -> 114       -0.13896
     107 -> 115        0.11701
     108 -> 113        0.25907
     108 -> 114        0.26419
     108 -> 115        0.18806
     108 -> 118        0.24201
     109 -> 115        0.13047
     110 -> 124       -0.11828

 Excited State  37:      Singlet-A      5.8598 eV  211.58 nm  f=0.0065  <S**2>=0.000
     105 -> 114        0.11121
     106 -> 113        0.33746
     107 -> 113        0.24108
     107 -> 115        0.35007
     107 -> 116        0.10458
     107 -> 118       -0.17376
     108 -> 113       -0.15197
     108 -> 115       -0.12483
     108 -> 118       -0.13084
     109 -> 114        0.11810
     109 -> 118        0.16270

 Excited State  38:      Singlet-A      5.9129 eV  209.68 nm  f=0.0081  <S**2>=0.000
     106 -> 112       -0.14129
     106 -> 114        0.22644
     108 -> 118       -0.10235
     109 -> 118        0.11482
     110 -> 120       -0.10120
     110 -> 125        0.52230
     110 -> 126       -0.10210

 Excited State  39:      Singlet-A      5.9258 eV  209.23 nm  f=0.0001  <S**2>=0.000
      96 -> 111       -0.32456
      97 -> 111       -0.25520
      98 -> 111       -0.19197
     100 -> 111        0.49388
     101 -> 111       -0.15105

 Excited State  40:      Singlet-A      5.9348 eV  208.91 nm  f=0.0027  <S**2>=0.000
     108 -> 113        0.52242
     108 -> 114       -0.42908
     110 -> 125        0.10244

 Excited State  41:      Singlet-A      5.9415 eV  208.68 nm  f=0.0456  <S**2>=0.000
     106 -> 112        0.26453
     106 -> 114       -0.30072
     108 -> 113       -0.15121
     108 -> 115        0.12659
     108 -> 118        0.12572
     109 -> 113       -0.10655
     109 -> 115       -0.16279
     109 -> 118       -0.12661
     110 -> 122       -0.11689
     110 -> 125        0.33181

 Excited State  42:      Singlet-A      5.9662 eV  207.81 nm  f=0.0002  <S**2>=0.000
     107 -> 113        0.38296
     107 -> 114        0.58740

 Excited State  43:      Singlet-A      6.0664 eV  204.38 nm  f=0.0006  <S**2>=0.000
      95 -> 111        0.30704
      97 -> 111        0.46783
     100 -> 111        0.34075
     101 -> 111        0.15494

 Excited State  44:      Singlet-A      6.1626 eV  201.19 nm  f=0.0013  <S**2>=0.000
      99 -> 111        0.37429
     101 -> 111       -0.23775
     110 -> 126        0.47370
     110 -> 127        0.11177

 Excited State  45:      Singlet-A      6.1712 eV  200.91 nm  f=0.0014  <S**2>=0.000
      99 -> 111       -0.42065
     101 -> 111        0.24014
     110 -> 126        0.42648
     110 -> 127        0.11798

 Excited State  46:      Singlet-A      6.1910 eV  200.26 nm  f=0.0080  <S**2>=0.000
      97 -> 111       -0.11507
      99 -> 111        0.35544
     101 -> 111        0.48298
     106 -> 114        0.12313
     109 -> 119       -0.20832

 Excited State  47:      Singlet-A      6.2051 eV  199.81 nm  f=0.0051  <S**2>=0.000
     105 -> 116       -0.20145
     106 -> 115       -0.17977
     106 -> 116        0.51826
     108 -> 116       -0.10926
     109 -> 116       -0.14931
     110 -> 127       -0.23264
     110 -> 128       -0.13022

 Excited State  48:      Singlet-A      6.2359 eV  198.82 nm  f=0.0537  <S**2>=0.000
      96 -> 111        0.18531
      97 -> 111       -0.13491
      98 -> 111        0.49559
     100 -> 111        0.24221
     105 -> 112       -0.14644
     106 -> 113        0.20646
     108 -> 115        0.10533

 Excited State  49:      Singlet-A      6.2492 eV  198.40 nm  f=0.2505  <S**2>=0.000
      96 -> 111       -0.17621
      98 -> 111       -0.20469
     100 -> 111       -0.13083
     105 -> 112       -0.29886
     106 -> 113        0.40219
     106 -> 115        0.11172
     107 -> 115       -0.21791
     108 -> 115        0.17488

 Excited State  50:      Singlet-A      6.2635 eV  197.95 nm  f=0.0259  <S**2>=0.000
     101 -> 111       -0.12227
     105 -> 112        0.10381
     106 -> 114        0.25652
     107 -> 115        0.13966
     108 -> 115        0.55152
     108 -> 116       -0.14667
     108 -> 118       -0.16523

 Excited State  51:      Singlet-A      6.2716 eV  197.69 nm  f=0.0144  <S**2>=0.000
     105 -> 112        0.15240
     106 -> 114       -0.13955
     106 -> 116        0.15314
     107 -> 115       -0.10771
     108 -> 116       -0.21906
     110 -> 126       -0.15984
     110 -> 127        0.42089
     110 -> 128        0.29799

 Excited State  52:      Singlet-A      6.2977 eV  196.87 nm  f=0.0198  <S**2>=0.000
     106 -> 114        0.14936
     106 -> 116        0.15954
     108 -> 116        0.61170
     110 -> 127        0.14604
     110 -> 128        0.10466

 Excited State  53:      Singlet-A      6.3125 eV  196.41 nm  f=0.0130  <S**2>=0.000
      95 -> 111        0.15463
      96 -> 111        0.34756
      97 -> 111       -0.20545
      98 -> 111       -0.24801
     105 -> 112       -0.29086
     106 -> 114        0.12642
     107 -> 115        0.11423
     108 -> 116       -0.10800
     108 -> 118        0.16253
     110 -> 127        0.11058
     110 -> 128        0.15769

 Excited State  54:      Singlet-A      6.3268 eV  195.97 nm  f=0.0443  <S**2>=0.000
      96 -> 111        0.31671
      97 -> 111       -0.15664
      98 -> 111       -0.20394
     106 -> 114       -0.28322
     107 -> 115       -0.18586
     108 -> 116        0.10578
     108 -> 118       -0.31672

 Excited State  55:      Singlet-A      6.3459 eV  195.38 nm  f=0.0627  <S**2>=0.000
     105 -> 112       -0.18183
     105 -> 117       -0.14013
     106 -> 113       -0.13131
     106 -> 117       -0.37343
     108 -> 118       -0.18844
     109 -> 117       -0.10379
     110 -> 127       -0.15182
     110 -> 128        0.37590
     110 -> 129       -0.10842

 Excited State  56:      Singlet-A      6.3639 eV  194.82 nm  f=0.0977  <S**2>=0.000
      95 -> 111       -0.10400
     105 -> 112       -0.21755
     105 -> 117        0.16504
     106 -> 113       -0.16196
     106 -> 114       -0.12203
     106 -> 115        0.10411
     106 -> 117        0.45456
     108 -> 118       -0.24959
     109 -> 117        0.11510
     110 -> 129       -0.13118

 Excited State  57:      Singlet-A      6.3831 eV  194.24 nm  f=0.0394  <S**2>=0.000
     105 -> 112        0.23451
     106 -> 113        0.11833
     106 -> 115       -0.10518
     106 -> 117        0.17018
     107 -> 115       -0.11884
     107 -> 118       -0.12081
     108 -> 118        0.16050
     110 -> 127       -0.34113
     110 -> 128        0.35446

 Excited State  58:      Singlet-A      6.3903 eV  194.02 nm  f=0.0071  <S**2>=0.000
      92 -> 111       -0.12389
      95 -> 111        0.52251
      96 -> 111       -0.16188
      97 -> 111       -0.24315
      98 -> 111        0.15951
     100 -> 111       -0.14398
     107 -> 118       -0.14076

 Excited State  59:      Singlet-A      6.4141 eV  193.30 nm  f=0.0230  <S**2>=0.000
      95 -> 111        0.11363
     106 -> 113        0.12611
     106 -> 115       -0.18664
     107 -> 115        0.16307
     107 -> 118        0.57623

 Excited State  60:      Singlet-A      6.4355 eV  192.66 nm  f=0.0000  <S**2>=0.000
     107 -> 117        0.69934

 Excited State  61:      Singlet-A      6.4444 eV  192.39 nm  f=0.0078  <S**2>=0.000
     106 -> 115        0.10011
     109 -> 119        0.10594
     110 -> 128        0.12238
     110 -> 129        0.62062
     110 -> 131       -0.10464

 Excited State  62:      Singlet-A      6.5096 eV  190.46 nm  f=0.1419  <S**2>=0.000
     105 -> 112        0.17257
     106 -> 115        0.51131
     106 -> 116        0.18020
     107 -> 118        0.17383
     109 -> 119       -0.23255

 Excited State  63:      Singlet-A      6.5287 eV  189.91 nm  f=0.0421  <S**2>=0.000
      91 -> 111        0.16591
      93 -> 111        0.10323
      94 -> 111        0.24103
     101 -> 111        0.16915
     106 -> 115        0.13065
     109 -> 119        0.52128

 Excited State  64:      Singlet-A      6.5587 eV  189.04 nm  f=0.0291  <S**2>=0.000
      90 -> 111       -0.22702
      91 -> 111        0.16998
      93 -> 111        0.18489
      94 -> 111        0.44286
      96 -> 111       -0.11564
     109 -> 119       -0.22912
     110 -> 129        0.15243

 Excited State  65:      Singlet-A      6.5935 eV  188.04 nm  f=0.0010  <S**2>=0.000
      89 -> 111       -0.18554
      90 -> 111       -0.18507
      91 -> 111        0.10403
      93 -> 111        0.49033
      94 -> 111       -0.34435
      96 -> 111       -0.11532

 Excited State  66:      Singlet-A      6.6011 eV  187.82 nm  f=0.0045  <S**2>=0.000
     110 -> 131        0.59237
     110 -> 132       -0.23803
     110 -> 133        0.19083
     110 -> 134        0.11191

 Excited State  67:      Singlet-A      6.6400 eV  186.72 nm  f=0.0526  <S**2>=0.000
     104 -> 114       -0.11548
     105 -> 113        0.12812
     106 -> 118        0.60444
     110 -> 130        0.11729

 Excited State  68:      Singlet-A      6.6641 eV  186.05 nm  f=0.0029  <S**2>=0.000
     106 -> 118       -0.10663
     110 -> 128        0.10607
     110 -> 130        0.66133

 Excited State  69:      Singlet-A      6.7382 eV  184.00 nm  f=0.0010  <S**2>=0.000
     110 -> 127       -0.10512
     110 -> 131        0.29212
     110 -> 132        0.54947
     110 -> 133       -0.26417

 Excited State  70:      Singlet-A      6.7499 eV  183.68 nm  f=0.0126  <S**2>=0.000
      90 -> 111       -0.14535
      91 -> 111        0.13647
      92 -> 111        0.51733
      93 -> 111       -0.19689
      94 -> 111       -0.12031
      95 -> 111        0.15052
     105 -> 113        0.15218
     105 -> 114       -0.18701

 Excited State  71:      Singlet-A      6.7665 eV  183.23 nm  f=0.1179  <S**2>=0.000
      92 -> 111        0.27388
     103 -> 112        0.13568
     105 -> 113       -0.29062
     105 -> 114        0.49088

 Excited State  72:      Singlet-A      6.7781 eV  182.92 nm  f=0.0538  <S**2>=0.000
     104 -> 112        0.18568
     105 -> 113        0.50634
     105 -> 114        0.30663
     106 -> 118       -0.16726
     108 -> 118        0.11168
     110 -> 133       -0.11906

 Excited State  73:      Singlet-A      6.7910 eV  182.57 nm  f=0.0099  <S**2>=0.000
      90 -> 111       -0.21888
      91 -> 111        0.43414
      92 -> 111       -0.28133
      93 -> 111       -0.30744
     105 -> 114        0.12286
     110 -> 133       -0.10499

 Excited State  74:      Singlet-A      6.8179 eV  181.85 nm  f=0.0156  <S**2>=0.000
      90 -> 111       -0.11361
     105 -> 113        0.11279
     105 -> 114        0.10310
     110 -> 132        0.31299
     110 -> 133        0.55732

 Excited State  75:      Singlet-A      6.8617 eV  180.69 nm  f=0.0017  <S**2>=0.000
      86 -> 111        0.13788
      87 -> 111       -0.21036
      89 -> 111        0.43949
      90 -> 111        0.21533
      91 -> 111        0.29462
      93 -> 111        0.10527
      94 -> 111       -0.19176

 Excited State  76:      Singlet-A      6.8939 eV  179.85 nm  f=0.0013  <S**2>=0.000
      86 -> 111       -0.10469
      87 -> 111        0.14364
      89 -> 111       -0.28724
      90 -> 111        0.43142
      91 -> 111        0.27568
      94 -> 111        0.11962
     109 -> 122        0.16721
     109 -> 123       -0.11732

 Excited State  77:      Singlet-A      6.9290 eV  178.94 nm  f=0.0075  <S**2>=0.000
     104 -> 112        0.58557
     105 -> 113       -0.14024
     105 -> 114       -0.10453
     108 -> 119       -0.19568
     110 -> 134       -0.13060

 Excited State  78:      Singlet-A      6.9438 eV  178.55 nm  f=0.0036  <S**2>=0.000
     103 -> 112        0.44678
     105 -> 114       -0.10688
     105 -> 115       -0.14231

 The electronic state is 1-A.
 Alpha  occ. eigenvalues --  -88.90867 -88.90683 -14.40213 -14.39903 -10.28327
 Alpha  occ. eigenvalues --  -10.27943 -10.24288 -10.24168 -10.22913 -10.22822
 Alpha  occ. eigenvalues --  -10.22280 -10.22141 -10.20276 -10.20261 -10.19623
 Alpha  occ. eigenvalues --  -10.19605 -10.19546 -10.19363 -10.19267 -10.19031
 Alpha  occ. eigenvalues --  -10.18885 -10.18790 -10.18677 -10.18653 -10.18570
 Alpha  occ. eigenvalues --  -10.17853 -10.17821 -10.16891 -10.16775  -7.98469
 Alpha  occ. eigenvalues --   -7.98287  -5.94753  -5.94579  -5.94394  -5.94218
 Alpha  occ. eigenvalues --   -5.94012  -5.93816  -1.01768  -1.01656  -0.87891
 Alpha  occ. eigenvalues --   -0.87790  -0.85093  -0.84840  -0.83324  -0.81564
 Alpha  occ. eigenvalues --   -0.79314  -0.77714  -0.77409  -0.76613  -0.75195
 Alpha  occ. eigenvalues --   -0.74804  -0.73525  -0.70509  -0.66860  -0.66060
 Alpha  occ. eigenvalues --   -0.65933  -0.63819  -0.63015  -0.61638  -0.60889
 Alpha  occ. eigenvalues --   -0.59077  -0.57398  -0.56734  -0.56243  -0.52998
 Alpha  occ. eigenvalues --   -0.52892  -0.52708  -0.50916  -0.50579  -0.48922
 Alpha  occ. eigenvalues --   -0.47763  -0.47581  -0.47442  -0.46711  -0.46581
 Alpha  occ. eigenvalues --   -0.46202  -0.45904  -0.44931  -0.44064  -0.43767
 Alpha  occ. eigenvalues --   -0.43418  -0.42359  -0.40940  -0.40846  -0.40372
 Alpha  occ. eigenvalues --   -0.40219  -0.39611  -0.39353  -0.38442  -0.38222
 Alpha  occ. eigenvalues --   -0.37745  -0.37639  -0.37398  -0.37303  -0.36702
 Alpha  occ. eigenvalues --   -0.36334  -0.35924  -0.35833  -0.35644  -0.35425
 Alpha  occ. eigenvalues --   -0.35344  -0.32577  -0.32189  -0.32036  -0.29344
 Alpha  occ. eigenvalues --   -0.26891  -0.25710  -0.25603  -0.23615  -0.18548
 Alpha virt. eigenvalues --   -0.10810  -0.04762  -0.03118  -0.03092  -0.01893
 Alpha virt. eigenvalues --   -0.01712  -0.01230  -0.01162   0.01850   0.04017
 Alpha virt. eigenvalues --    0.04166   0.04587   0.05015   0.05116   0.05409

 Mulliken charges:
               1
     1  C   -0.309623
     2  C   -0.064922
     3  C   -0.222528
     4  C   -0.064924
     5  C    0.223956
     6  S    0.023574
     7  C    0.033092
     8  C    0.177011
     9  N    0.019403
    10  C   -0.188369
    11  C   -0.157478
    12  C   -0.126953
    13  C   -0.274419
    14  C   -0.127828
    15  C   -0.380167
    16  C   -0.241586
    17  C   -0.037950
    18  C   -0.320908
    19  C    0.212112
    20  S    0.052350
    21  C    0.018545
    22  C    0.184130
    23  N    0.024972
    24  C   -0.184493
    25  C   -0.154340
    26  C   -0.130936
    27  C   -0.273361
    28  C   -0.161202
    29  C   -0.383683
    30  H    0.166146
    31  H    0.146042
    32  H    0.138513
    33  H    0.147620
    34  H    0.163035
    35  H    0.156671
    36  H    0.158099
    37  H    0.168961
    38  H    0.154377
    39  H    0.153041
    40  H    0.138377
    41  H    0.139769
    42  H    0.138772
    43  H    0.138007
    44  H    0.169138
    45  H    0.157831
    46  H    0.162965
    47  H    0.157314
    48  H    0.158632
    49  H    0.173723
    50  H    0.166030
    51  H    0.158229
    52  H    0.140759
    53  H    0.139320
    54  H    0.145155
 Sum of Mulliken charges =   1.00000

 Dipole moment (field-independent basis, Debye):
    X=             -1.0037    Y=              0.2129    Z=              0.6197  Tot=              1.1987
 Quadrupole moment (field-independent basis, Debye-Ang):
   XX=             32.8900   YY=           -148.5125   ZZ=           -193.4525
   XY=             26.8835   XZ=              4.8677   YZ=              4.9687

 Normal termination of Gaussian 16 at Fri Nov  3 18:10:43 2023.
