 Gaussian 16, Revision C.02,
 Gaussian 16:  ES64L-G16RevC.02  7-Dec-2021

 -----------------------------------------------------------
 # td=(nstates=50) b3lyp/def2TZVP scrf(smd, solvent=ethanol)
 -----------------------------------------------------------

 ---
 B-2
 ---
 Symbolic Z-matrix:
 Charge =  0 Multiplicity = 1

                         Standard orientation:
 ---------------------------------------------------------------------
 Center     Atomic      Atomic             Coordinates (Angstroms)
 Number     Number       Type             X           Y           Z
 ---------------------------------------------------------------------
      1          6           0        4.186043   -0.985243   -0.000113
      2          6           0        2.965678   -0.099955    0.000017
      3          6           0        1.724259   -0.636470   -0.000213
      4          6           0        0.452578    0.059668   -0.000179
      5          6           0       -0.741079   -0.579413   -0.000205
      6          6           0       -2.064372    0.040415   -0.000137
      7          6           0       -3.152878   -0.763225    0.000253
      8          6           0       -4.604173   -0.385851    0.000427
      9          6           0        3.260391    1.378273    0.000567
     10          6           0       -2.133175    1.550261   -0.000541
     11          1           0        4.817179   -0.791217   -0.879673
     12          1           0        4.817098   -0.791647    0.879598
     13          1           0        3.922096   -2.047445   -0.000374
     14          1           0        1.652379   -1.725280   -0.000493
     15          1           0        0.469127    1.146468   -0.000113
     16          1           0       -0.735417   -1.670538   -0.000304
     17          1           0       -2.968126   -1.838635    0.000440
     18          1           0       -4.773466    0.693748    0.001475
     19          1           0       -5.114894   -0.802710   -0.879231
     20          1           0       -5.115042   -0.804470    0.879137
     21          1           0        2.363003    2.000757    0.000075
     22          1           0        3.859006    1.653716    0.880554
     23          1           0        3.860320    1.654180   -0.878355
     24          1           0       -1.627265    1.964044   -0.882102
     25          1           0       -3.158688    1.923675   -0.000452
     26          1           0       -1.626926    1.964596    0.880567
 ---------------------------------------------------------------------

 SCF Done:  E(RB3LYP) =  -390.828491763     A.U. after   11 cycles

 Excitation energies and oscillator strengths:

 Excited State   1:      Singlet-A      4.2062 eV  294.77 nm  f=1.3988  <S**2>=0.000
      38 -> 39         0.70711
 This state for optimization and/or second-order correction.
 Total Energy, E(TD-HF/TD-DFT) =  -390.673916908
 Copying the excited state density for this state as the 1-particle RhoCI density.

 Excited State   2:      Singlet-A      5.4359 eV  228.08 nm  f=0.0114  <S**2>=0.000
      37 -> 39         0.56803
      38 -> 40         0.41659

 Excited State   3:      Singlet-A      5.8337 eV  212.53 nm  f=0.0080  <S**2>=0.000
      38 -> 41         0.70182

 Excited State   4:      Singlet-A      6.0661 eV  204.39 nm  f=0.0001  <S**2>=0.000
      38 -> 42         0.69953

 Excited State   5:      Singlet-A      6.2444 eV  198.55 nm  f=0.0149  <S**2>=0.000
      37 -> 39        -0.40768
      38 -> 40         0.56159

 Excited State   6:      Singlet-A      6.2809 eV  197.40 nm  f=0.0001  <S**2>=0.000
      38 -> 43         0.68801
      38 -> 45        -0.13974

 Excited State   7:      Singlet-A      6.4690 eV  191.66 nm  f=0.0055  <S**2>=0.000
      36 -> 39        -0.30142
      38 -> 44         0.63616

 Excited State   8:      Singlet-A      6.6090 eV  187.60 nm  f=0.0001  <S**2>=0.000
      35 -> 39         0.69839

 Excited State   9:      Singlet-A      6.8267 eV  181.62 nm  f=0.0001  <S**2>=0.000
      38 -> 43         0.13418
      38 -> 45         0.68339

 Excited State  10:      Singlet-A      6.9994 eV  177.14 nm  f=0.0000  <S**2>=0.000
      34 -> 39         0.69100

 Excited State  11:      Singlet-A      7.0966 eV  174.71 nm  f=0.0001  <S**2>=0.000
      38 -> 46         0.65119
      38 -> 47         0.23434

 Excited State  12:      Singlet-A      7.2516 eV  170.97 nm  f=0.0004  <S**2>=0.000
      36 -> 39        -0.12235
      38 -> 46        -0.23383
      38 -> 47         0.63706

 Excited State  13:      Singlet-A      7.2518 eV  170.97 nm  f=0.0025  <S**2>=0.000
      36 -> 39         0.60607
      37 -> 40         0.13260
      38 -> 44         0.28458
      38 -> 47         0.12888

 Excited State  14:      Singlet-A      7.3943 eV  167.68 nm  f=0.0003  <S**2>=0.000
      32 -> 39         0.21038
      33 -> 39         0.65471

 Excited State  15:      Singlet-A      7.4821 eV  165.71 nm  f=0.0005  <S**2>=0.000
      38 -> 48         0.67424
      38 -> 49         0.15884

 Excited State  16:      Singlet-A      7.6279 eV  162.54 nm  f=0.0001  <S**2>=0.000
      38 -> 48        -0.16384
      38 -> 49         0.66369

 Excited State  17:      Singlet-A      7.6317 eV  162.46 nm  f=0.0000  <S**2>=0.000
      30 -> 39        -0.21470
      32 -> 39         0.60849
      33 -> 39        -0.22433

 Excited State  18:      Singlet-A      7.6793 eV  161.45 nm  f=0.0010  <S**2>=0.000
      37 -> 41         0.66364
      37 -> 42         0.16959
      38 -> 49        -0.10482

 Excited State  19:      Singlet-A      7.7892 eV  159.17 nm  f=0.3007  <S**2>=0.000
      36 -> 39        -0.10445
      37 -> 40         0.68064

 Excited State  20:      Singlet-A      7.9195 eV  156.56 nm  f=0.0024  <S**2>=0.000
      31 -> 39         0.67233
      32 -> 39        -0.12336

 Excited State  21:      Singlet-A      7.9314 eV  156.32 nm  f=0.0009  <S**2>=0.000
      37 -> 41        -0.17972
      37 -> 42         0.66544

 Excited State  22:      Singlet-A      7.9601 eV  155.76 nm  f=0.0268  <S**2>=0.000
      38 -> 50         0.66316
      38 -> 51         0.21069

 Excited State  23:      Singlet-A      8.0204 eV  154.59 nm  f=0.0076  <S**2>=0.000
      38 -> 50        -0.21390
      38 -> 51         0.66219

 Excited State  24:      Singlet-A      8.0434 eV  154.14 nm  f=0.0012  <S**2>=0.000
      30 -> 39         0.65556
      32 -> 39         0.21687

 Excited State  25:      Singlet-A      8.1504 eV  152.12 nm  f=0.0008  <S**2>=0.000
      37 -> 43         0.68085
      37 -> 45        -0.11185

 Excited State  26:      Singlet-A      8.3029 eV  149.33 nm  f=0.0101  <S**2>=0.000
      37 -> 44         0.23610
      38 -> 52         0.65209

 Excited State  27:      Singlet-A      8.3588 eV  148.33 nm  f=0.0078  <S**2>=0.000
      28 -> 39         0.68160

 Excited State  28:      Singlet-A      8.3797 eV  147.96 nm  f=0.0021  <S**2>=0.000
      38 -> 53         0.68199

 Excited State  29:      Singlet-A      8.4424 eV  146.86 nm  f=0.0367  <S**2>=0.000
      29 -> 39         0.15055
      37 -> 44         0.64025
      38 -> 52        -0.23508

 Excited State  30:      Singlet-A      8.4879 eV  146.07 nm  f=0.0285  <S**2>=0.000
      29 -> 39         0.68422
      37 -> 44        -0.14352

 Excited State  31:      Singlet-A      8.4951 eV  145.95 nm  f=0.0006  <S**2>=0.000
      38 -> 54         0.68757

 Excited State  32:      Singlet-A      8.6643 eV  143.10 nm  f=0.0009  <S**2>=0.000
      37 -> 43         0.11258
      37 -> 45         0.67273

 Excited State  33:      Singlet-A      8.7883 eV  141.08 nm  f=0.0001  <S**2>=0.000
      26 -> 39         0.10018
      34 -> 44         0.10927
      35 -> 40         0.58958
      38 -> 56        -0.30397

 Excited State  34:      Singlet-A      8.8099 eV  140.73 nm  f=0.0047  <S**2>=0.000
      35 -> 40         0.28347
      37 -> 45         0.10601
      37 -> 46        -0.12722
      38 -> 56         0.58136
      38 -> 57        -0.10604

 Excited State  35:      Singlet-A      8.9064 eV  139.21 nm  f=0.0022  <S**2>=0.000
      35 -> 40         0.12820
      38 -> 57         0.66039

 Excited State  36:      Singlet-A      8.9390 eV  138.70 nm  f=0.0012  <S**2>=0.000
      36 -> 43         0.10640
      37 -> 46         0.57050
      37 -> 47         0.28752
      38 -> 56         0.13324
      38 -> 57        -0.13758

 Excited State  37:      Singlet-A      8.9515 eV  138.51 nm  f=0.0330  <S**2>=0.000
      27 -> 39        -0.17418
      38 -> 55         0.66270

 Excited State  38:      Singlet-A      8.9970 eV  137.81 nm  f=0.0425  <S**2>=0.000
      25 -> 39        -0.10419
      27 -> 39         0.66573
      38 -> 55         0.17660

 Excited State  39:      Singlet-A      9.0077 eV  137.64 nm  f=0.0000  <S**2>=0.000
      26 -> 39         0.64926
      32 -> 40        -0.10955

 Excited State  40:      Singlet-A      9.0331 eV  137.25 nm  f=0.0012  <S**2>=0.000
      36 -> 40         0.68093

 Excited State  41:      Singlet-A      9.0933 eV  136.35 nm  f=0.0016  <S**2>=0.000
      34 -> 40        -0.10493
      36 -> 41         0.19506
      37 -> 46        -0.26087
      37 -> 47         0.57207
      37 -> 49         0.10406

 Excited State  42:      Singlet-A      9.1349 eV  135.73 nm  f=0.0001  <S**2>=0.000
      34 -> 40         0.60400
      35 -> 44         0.25687
      37 -> 47         0.10274

 Excited State  43:      Singlet-A      9.1869 eV  134.96 nm  f=0.0051  <S**2>=0.000
      37 -> 48        -0.14590
      38 -> 58         0.64766
      38 -> 59        -0.11740

 Excited State  44:      Singlet-A      9.2060 eV  134.68 nm  f=0.0002  <S**2>=0.000
      36 -> 41         0.61950
      36 -> 43        -0.10278
      37 -> 46         0.18687
      37 -> 47        -0.17335
      38 -> 58         0.10646

 Excited State  45:      Singlet-A      9.2146 eV  134.55 nm  f=0.0355  <S**2>=0.000
      34 -> 42        -0.17986
      35 -> 41         0.66365

 Excited State  46:      Singlet-A      9.3387 eV  132.76 nm  f=0.0047  <S**2>=0.000
      37 -> 48         0.45738
      38 -> 58         0.19299
      38 -> 59         0.46380

 Excited State  47:      Singlet-A      9.3787 eV  132.20 nm  f=0.0086  <S**2>=0.000
      34 -> 41        -0.41529
      35 -> 42         0.54224

 Excited State  48:      Singlet-A      9.4035 eV  131.85 nm  f=0.0000  <S**2>=0.000
      36 -> 42        -0.16772
      37 -> 48        -0.45174
      37 -> 49        -0.11147
      38 -> 59         0.46659

 Excited State  49:      Singlet-A      9.4418 eV  131.31 nm  f=0.0002  <S**2>=0.000
      36 -> 42         0.12718
      36 -> 43        -0.17786
      37 -> 46         0.11281
      37 -> 48        -0.13589
      37 -> 49         0.60485

 Excited State  50:      Singlet-A      9.5132 eV  130.33 nm  f=0.0002  <S**2>=0.000
      36 -> 42         0.63998
      37 -> 48        -0.12168
      37 -> 49        -0.19504

 The electronic state is 1-A.
 Alpha  occ. eigenvalues --  -10.17986 -10.17698 -10.16816 -10.16700 -10.16624
 Alpha  occ. eigenvalues --  -10.16119 -10.15972 -10.15857 -10.15794 -10.15723
 Alpha  occ. eigenvalues --   -0.82614  -0.80695  -0.75901  -0.71794  -0.68656
 Alpha  occ. eigenvalues --   -0.67886  -0.64912  -0.56863  -0.52613  -0.50770
 Alpha  occ. eigenvalues --   -0.47508  -0.45550  -0.43657  -0.42694  -0.41723
 Alpha  occ. eigenvalues --   -0.41115  -0.39732  -0.37947  -0.37849  -0.37150
 Alpha  occ. eigenvalues --   -0.36807  -0.36045  -0.35332  -0.33646  -0.32427
 Alpha  occ. eigenvalues --   -0.32205  -0.26500  -0.19800
 Alpha virt. eigenvalues --   -0.03996   0.03846   0.04392   0.05145   0.06433
 Alpha virt. eigenvalues --    0.07263   0.08156   0.09023   0.09677   0.10624
 Alpha virt. eigenvalues --    0.11243   0.11990   0.12135   0.13404   0.14029

 Mulliken charges:
               1
     1  C   -0.372626
     2  C    0.092068
     3  C   -0.254046
     4  C   -0.109488
     5  C   -0.196693
     6  C    0.021967
     7  C   -0.127928
     8  C   -0.366586
     9  C   -0.380951
    10  C   -0.404599
    11  H    0.128457
    12  H    0.128445
    13  H    0.127653
    14  H    0.124813
    15  H    0.146781
    16  H    0.126899
    17  H    0.129341
    18  H    0.126165
    19  H    0.133189
    20  H    0.133175
    21  H    0.128766
    22  H    0.131339
    23  H    0.131324
    24  H    0.134926
    25  H    0.132687
    26  H    0.134922
 Sum of Mulliken charges =  -0.00000

 Dipole moment (field-independent basis, Debye):
    X=              0.1250    Y=              0.5969    Z=              0.0002  Tot=              0.6099
 Quadrupole moment (field-independent basis, Debye-Ang):
   XX=            -53.4639   YY=            -60.0235   ZZ=            -67.9081
   XY=              0.9558   XZ=              0.0012   YZ=              0.0002

 Normal termination of Gaussian 16 at Fri Nov  3 15:56:35 2023.
