 Gaussian 16, Revision C.02,
 Gaussian 16:  ES64L-G16RevC.02  7-Dec-2021

 -------------------------------------------------------------
 # td=(nstates=50) b3lyp/6-31g(d,p) scrf(smd, solvent=ethanol)
 -------------------------------------------------------------

 ---
 A-1
 ---
 Symbolic Z-matrix:
 Charge =  1 Multiplicity = 1

                         Standard orientation:
 ---------------------------------------------------------------------
 Center     Atomic      Atomic             Coordinates (Angstroms)
 Number     Number       Type             X           Y           Z
 ---------------------------------------------------------------------
      1          6           0       -1.259214    0.216698   -0.039367
      2          6           0        0.000003    0.828935   -0.000122
      3          6           0        1.259209    0.216684    0.039249
      4          7           0        2.433464    0.904848    0.145998
      5         16           0       -1.557561   -1.512152    0.053882
      6          6           0       -3.297665   -1.258824   -0.027283
      7          6           0       -3.589904    0.108866   -0.118299
      8          7           0       -2.433474    0.904863   -0.146106
      9         16           0        1.557549   -1.512171   -0.053923
     10          6           0        3.297657   -1.258850    0.027304
     11          6           0        3.589900    0.108842    0.118251
     12          6           0       -4.301571   -2.224422   -0.003624
     13          6           0       -5.624645   -1.792125   -0.066975
     14          6           0       -5.925643   -0.425687   -0.149009
     15          6           0       -4.920394    0.538274   -0.174272
     16          6           0        4.301563   -2.224450    0.003718
     17          6           0        5.624635   -1.792149    0.067066
     18          6           0        5.925635   -0.425707    0.149021
     19          6           0        4.920384    0.538258    0.174213
     20          6           0       -2.510348    2.373529   -0.257226
     21          6           0       -2.566433    3.073786    1.101522
     22          6           0        2.510339    2.373497    0.257299
     23          6           0        2.566508    3.073929   -1.101357
     24          1           0        0.000014    1.909040   -0.000214
     25          1           0       -4.060576   -3.280313    0.063971
     26          1           0       -6.427238   -2.522132   -0.049094
     27          1           0       -6.962056   -0.106514   -0.191342
     28          1           0       -5.176748    1.590213   -0.228130
     29          1           0        4.060566   -3.280345   -0.063815
     30          1           0        6.427230   -2.522156    0.049231
     31          1           0        6.962048   -0.106532    0.191339
     32          1           0        5.176733    1.590201    0.228019
     33          1           0       -1.657488    2.708489   -0.852128
     34          1           0       -3.398115    2.597174   -0.852215
     35          1           0       -3.441185    2.752064    1.674572
     36          1           0       -1.673838    2.863356    1.699082
     37          1           0       -2.634230    4.156364    0.954302
     38          1           0        1.657436    2.708379    0.852183
     39          1           0        3.398074    2.597059    0.852370
     40          1           0        3.441334    2.752344   -1.674368
     41          1           0        1.673988    2.863510   -1.699033
     42          1           0        2.634214    4.156493   -0.953990
 ---------------------------------------------------------------------

 SCF Done:  E(RB3LYP) =  -1641.27428495     A.U. after   13 cycles

 Excitation energies and oscillator strengths:

 Excited State   1:      Singlet-A      3.1909 eV  388.56 nm  f=1.2089  <S**2>=0.000
      89 -> 90         0.70547
 This state for optimization and/or second-order correction.
 Total Energy, E(TD-HF/TD-DFT) =  -1641.15702167
 Copying the excited state density for this state as the 1-particle RhoCI density.

 Excited State   2:      Singlet-A      3.9233 eV  316.02 nm  f=0.0004  <S**2>=0.000
      89 -> 91         0.70247

 Excited State   3:      Singlet-A      4.1170 eV  301.15 nm  f=0.0345  <S**2>=0.000
      88 -> 90         0.66470
      89 -> 92         0.20872

 Excited State   4:      Singlet-A      4.2237 eV  293.54 nm  f=0.0108  <S**2>=0.000
      87 -> 90         0.67292
      89 -> 93         0.19451

 Excited State   5:      Singlet-A      4.5386 eV  273.18 nm  f=0.0056  <S**2>=0.000
      86 -> 90         0.67485
      89 -> 92        -0.10645
      89 -> 94        -0.14790

 Excited State   6:      Singlet-A      4.5842 eV  270.46 nm  f=0.0220  <S**2>=0.000
      87 -> 94        -0.10545
      88 -> 90        -0.20971
      89 -> 92         0.64703

 Excited State   7:      Singlet-A      4.6791 eV  264.98 nm  f=0.0275  <S**2>=0.000
      87 -> 90        -0.19245
      88 -> 94        -0.10864
      89 -> 93         0.65738

 Excited State   8:      Singlet-A      4.9572 eV  250.11 nm  f=0.0824  <S**2>=0.000
      86 -> 90         0.11795
      87 -> 92         0.11420
      88 -> 93         0.10797
      89 -> 94         0.65474

 Excited State   9:      Singlet-A      5.0606 eV  245.00 nm  f=0.0000  <S**2>=0.000
      86 -> 91         0.15785
      87 -> 96        -0.10367
      88 -> 91         0.62404
      89 -> 96         0.25149

 Excited State  10:      Singlet-A      5.1370 eV  241.36 nm  f=0.0005  <S**2>=0.000
      85 -> 90        -0.15856
      88 -> 92         0.10677
      89 -> 95         0.65803

 Excited State  11:      Singlet-A      5.2098 eV  237.98 nm  f=0.0000  <S**2>=0.000
      86 -> 91         0.23042
      88 -> 91        -0.29527
      89 -> 96         0.59740

 Excited State  12:      Singlet-A      5.2471 eV  236.29 nm  f=0.0068  <S**2>=0.000
      87 -> 91         0.68861
      88 -> 96        -0.11892

 Excited State  13:      Singlet-A      5.3718 eV  230.81 nm  f=0.1583  <S**2>=0.000
      85 -> 90         0.60676
      86 -> 92        -0.10468
      87 -> 93         0.15446
      87 -> 95        -0.11811
      88 -> 92         0.20049
      88 -> 94        -0.16439

 Excited State  14:      Singlet-A      5.5203 eV  224.60 nm  f=0.0002  <S**2>=0.000
      86 -> 91         0.64319
      89 -> 96        -0.27230

 Excited State  15:      Singlet-A      5.7817 eV  214.44 nm  f=0.0542  <S**2>=0.000
      85 -> 90         0.26589
      85 -> 93         0.10298
      86 -> 92         0.42655
      86 -> 94         0.18060
      87 -> 95         0.15470
      88 -> 92        -0.16598
      88 -> 94         0.31438
      89 -> 93         0.10678
      89 -> 95         0.15943

 Excited State  16:      Singlet-A      5.8281 eV  212.73 nm  f=0.1762  <S**2>=0.000
      84 -> 90        -0.27577
      85 -> 92         0.11451
      86 -> 93         0.34030
      86 -> 95         0.15727
      87 -> 92        -0.23022
      87 -> 94         0.24599
      88 -> 93        -0.25618
      88 -> 95         0.16430
      89 -> 94         0.17830

 Excited State  17:      Singlet-A      5.8698 eV  211.22 nm  f=0.0451  <S**2>=0.000
      84 -> 90         0.52900
      86 -> 93         0.29171
      87 -> 94         0.22408
      88 -> 93         0.14731
      88 -> 95         0.20372

 Excited State  18:      Singlet-A      5.8708 eV  211.19 nm  f=0.0790  <S**2>=0.000
      83 -> 90        -0.21836
      86 -> 92         0.19732
      86 -> 94        -0.14576
      88 -> 92         0.57138
      88 -> 94         0.15958
      89 -> 95        -0.10988

 Excited State  19:      Singlet-A      5.9967 eV  206.75 nm  f=0.0013  <S**2>=0.000
      87 -> 92        -0.47186
      88 -> 93         0.51474

 Excited State  20:      Singlet-A      6.0231 eV  205.85 nm  f=0.0179  <S**2>=0.000
      83 -> 90         0.51074
      86 -> 94         0.12880
      87 -> 93        -0.37953
      88 -> 92         0.24525

 Excited State  21:      Singlet-A      6.1196 eV  202.60 nm  f=0.0397  <S**2>=0.000
      84 -> 90        -0.33789
      86 -> 93         0.17208
      86 -> 95        -0.10237
      87 -> 92         0.42314
      87 -> 94         0.18311
      88 -> 93         0.32357

 Excited State  22:      Singlet-A      6.1541 eV  201.47 nm  f=0.1274  <S**2>=0.000
      83 -> 90         0.40696
      86 -> 92         0.14557
      86 -> 94        -0.15392
      87 -> 93         0.50413
      88 -> 94         0.14308

 Excited State  23:      Singlet-A      6.2368 eV  198.79 nm  f=0.0103  <S**2>=0.000
      85 -> 91         0.14726
      89 -> 98         0.68023

 Excited State  24:      Singlet-A      6.3067 eV  196.59 nm  f=0.3578  <S**2>=0.000
      86 -> 92        -0.35078
      87 -> 95        -0.25132
      88 -> 94         0.53902

 Excited State  25:      Singlet-A      6.3188 eV  196.21 nm  f=0.0083  <S**2>=0.000
      89 -> 97         0.67935

 Excited State  26:      Singlet-A      6.3832 eV  194.24 nm  f=0.0086  <S**2>=0.000
      87 -> 94        -0.47529
      88 -> 95         0.49116
      89 -> 97         0.11381

 Excited State  27:      Singlet-A      6.4034 eV  193.62 nm  f=0.0025  <S**2>=0.000
      85 -> 91         0.64255
      86 -> 96        -0.23187
      89 -> 98        -0.13178

 Excited State  28:      Singlet-A      6.4854 eV  191.17 nm  f=0.0040  <S**2>=0.000
      82 -> 90         0.59843
      88 -> 96        -0.34393

 Excited State  29:      Singlet-A      6.5398 eV  189.59 nm  f=0.0255  <S**2>=0.000
      82 -> 90         0.34159
      86 -> 92         0.10033
      87 -> 95        -0.16193
      88 -> 96         0.54905

 Excited State  30:      Singlet-A      6.5509 eV  189.26 nm  f=0.1436  <S**2>=0.000
      85 -> 93         0.13153
      86 -> 92        -0.28250
      86 -> 94         0.28741
      87 -> 93         0.11441
      87 -> 95         0.47411
      88 -> 96         0.19282

 Excited State  31:      Singlet-A      6.5527 eV  189.21 nm  f=0.0079  <S**2>=0.000
      85 -> 92        -0.19129
      86 -> 93         0.48104
      87 -> 94        -0.26799
      88 -> 95        -0.35560

 Excited State  32:      Singlet-A      6.6647 eV  186.03 nm  f=0.3482  <S**2>=0.000
      84 -> 92        -0.12446
      85 -> 90        -0.11605
      86 -> 92         0.10671
      86 -> 94         0.53067
      87 -> 93         0.16691
      87 -> 95        -0.30600

 Excited State  33:      Singlet-A      6.6694 eV  185.90 nm  f=0.0000  <S**2>=0.000
      84 -> 91         0.13717
      87 -> 96         0.67268
      88 -> 91         0.11453

 Excited State  34:      Singlet-A      6.7429 eV  183.87 nm  f=0.0906  <S**2>=0.000
      81 -> 90        -0.41175
      86 -> 95         0.51496

 Excited State  35:      Singlet-A      6.8010 eV  182.30 nm  f=0.0264  <S**2>=0.000
      79 -> 90         0.30232
      81 -> 90        -0.37954
      84 -> 91         0.40426
      86 -> 95        -0.26092

 Excited State  36:      Singlet-A      6.8132 eV  181.98 nm  f=0.0371  <S**2>=0.000
      79 -> 90        -0.20119
      81 -> 90         0.22214
      84 -> 91         0.52945
      86 -> 95         0.27004
      87 -> 96        -0.13435

 Excited State  37:      Singlet-A      6.8754 eV  180.33 nm  f=0.0155  <S**2>=0.000
      80 -> 90         0.67110
      86 -> 96        -0.18419

 Excited State  38:      Singlet-A      6.8790 eV  180.23 nm  f=0.0011  <S**2>=0.000
      80 -> 90         0.19452
      83 -> 91        -0.16994
      85 -> 91         0.19167
      86 -> 96         0.60781
      88 -> 96        -0.10430

 Excited State  39:      Singlet-A      6.9577 eV  178.20 nm  f=0.0079  <S**2>=0.000
      78 -> 90         0.60446
      79 -> 90         0.28215
      81 -> 90         0.15438

 Excited State  40:      Singlet-A      6.9799 eV  177.63 nm  f=0.0031  <S**2>=0.000
      83 -> 91         0.65278
      84 -> 96         0.12073
      85 -> 91         0.11562
      86 -> 96         0.15652

 Excited State  41:      Singlet-A      7.0124 eV  176.81 nm  f=0.0100  <S**2>=0.000
      76 -> 90        -0.36113
      78 -> 90        -0.30294
      79 -> 90         0.43864
      81 -> 90         0.19525

 Excited State  42:      Singlet-A      7.0871 eV  174.94 nm  f=0.0017  <S**2>=0.000
      89 -> 99         0.69054

 Excited State  43:      Singlet-A      7.1016 eV  174.59 nm  f=0.0160  <S**2>=0.000
      76 -> 90        -0.26060
      78 -> 90         0.10438
      79 -> 90        -0.12112
      83 -> 94        -0.10293
      84 -> 95         0.10778
      85 -> 92         0.55667
      87 -> 94        -0.12740
      88 -> 95        -0.13073

 Excited State  44:      Singlet-A      7.1159 eV  174.24 nm  f=0.0004  <S**2>=0.000
      71 -> 90         0.11398
      76 -> 90         0.45503
      78 -> 90        -0.12538
      79 -> 90         0.23273
      81 -> 90         0.20202
      85 -> 92         0.29064
      89 ->100         0.15691

 Excited State  45:      Singlet-A      7.1524 eV  173.35 nm  f=0.2978  <S**2>=0.000
      84 -> 94         0.15048
      85 -> 93         0.62314
      87 -> 95        -0.15117
      88 -> 97        -0.11557

 Excited State  46:      Singlet-A      7.1605 eV  173.15 nm  f=0.0002  <S**2>=0.000
      76 -> 90        -0.19410
      86 -> 98        -0.10925
      89 ->100         0.65092

 Excited State  47:      Singlet-A      7.1821 eV  172.63 nm  f=0.0056  <S**2>=0.000
      77 -> 90         0.68463

 Excited State  48:      Singlet-A      7.3253 eV  169.26 nm  f=0.0013  <S**2>=0.000
      83 -> 93         0.13758
      84 -> 92        -0.23017
      88 -> 97         0.62835

 Excited State  49:      Singlet-A      7.3520 eV  168.64 nm  f=0.0005  <S**2>=0.000
      75 -> 90         0.35394
      83 -> 92         0.22888
      84 -> 93        -0.23819
      85 -> 94         0.48044

 Excited State  50:      Singlet-A      7.3553 eV  168.56 nm  f=0.0003  <S**2>=0.000
      75 -> 90         0.59044
      83 -> 92        -0.14601
      84 -> 93         0.15695
      85 -> 94        -0.28454

 The electronic state is 1-A.
 Alpha  occ. eigenvalues --  -88.93942 -88.93942 -14.42394 -14.42394 -10.30691
 Alpha  occ. eigenvalues --  -10.30691 -10.25820 -10.25820 -10.24531 -10.24530
 Alpha  occ. eigenvalues --  -10.23877 -10.23877 -10.21747 -10.21222 -10.21222
 Alpha  occ. eigenvalues --  -10.20897 -10.20896 -10.20364 -10.20364 -10.20160
 Alpha  occ. eigenvalues --  -10.20160 -10.18426 -10.18426  -8.00062  -8.00061
 Alpha  occ. eigenvalues --   -5.96515  -5.96515  -5.96139  -5.96137  -5.95657
 Alpha  occ. eigenvalues --   -5.95655  -1.02457  -1.02118  -0.88024  -0.87897
 Alpha  occ. eigenvalues --   -0.86153  -0.84012  -0.80744  -0.77853  -0.77480
 Alpha  occ. eigenvalues --   -0.76471  -0.75207  -0.74491  -0.72075  -0.66361
 Alpha  occ. eigenvalues --   -0.66132  -0.65833  -0.63349  -0.61451  -0.61426
 Alpha  occ. eigenvalues --   -0.59240  -0.56933  -0.53642  -0.53025  -0.52843
 Alpha  occ. eigenvalues --   -0.50982  -0.50166  -0.48065  -0.47975  -0.47199
 Alpha  occ. eigenvalues --   -0.46342  -0.46088  -0.45819  -0.45710  -0.43856
 Alpha  occ. eigenvalues --   -0.43566  -0.43533  -0.42241  -0.40701  -0.40463
 Alpha  occ. eigenvalues --   -0.39773  -0.39379  -0.38426  -0.37959  -0.37601
 Alpha  occ. eigenvalues --   -0.37394  -0.37031  -0.36242  -0.35970  -0.35844
 Alpha  occ. eigenvalues --   -0.35266  -0.34851  -0.32485  -0.31924  -0.29880
 Alpha  occ. eigenvalues --   -0.26308  -0.25615  -0.25161  -0.20955
 Alpha virt. eigenvalues --   -0.07943  -0.03242  -0.02234  -0.01817  -0.01008
 Alpha virt. eigenvalues --   -0.00092   0.01634   0.04224   0.05335   0.07802
 Alpha virt. eigenvalues --    0.08295   0.10928   0.11029   0.12221   0.12693

 Mulliken charges:
               1
     1  C    0.123625
     2  C   -0.185689
     3  C    0.123622
     4  N   -0.526627
     5  S    0.314205
     6  C   -0.201314
     7  C    0.359646
     8  N   -0.526634
     9  S    0.314205
    10  C   -0.201313
    11  C    0.359640
    12  C   -0.128484
    13  C   -0.091616
    14  C   -0.124043
    15  C   -0.098478
    16  C   -0.128485
    17  C   -0.091615
    18  C   -0.124043
    19  C   -0.098476
    20  C   -0.084974
    21  C   -0.330649
    22  C   -0.084970
    23  C   -0.330651
    24  H    0.178376
    25  H    0.147458
    26  H    0.130932
    27  H    0.133377
    28  H    0.148977
    29  H    0.147458
    30  H    0.130932
    31  H    0.133378
    32  H    0.148978
    33  H    0.161750
    34  H    0.162594
    35  H    0.135757
    36  H    0.133891
    37  H    0.137637
    38  H    0.161747
    39  H    0.162592
    40  H    0.135756
    41  H    0.133892
    42  H    0.137636
 Sum of Mulliken charges =   1.00000

 Dipole moment (field-independent basis, Debye):
    X=              0.0001    Y=              5.1934    Z=              0.0001  Tot=              5.1934
 Quadrupole moment (field-independent basis, Debye-Ang):
   XX=            -65.7863   YY=           -108.6841   ZZ=           -151.4310
   XY=             -0.0003   XZ=              2.2062   YZ=             -0.0005

 Normal termination of Gaussian 16 at Tue Oct 31 03:42:05 2023.
