 Gaussian 16, Revision C.02,
 Gaussian 16:  ES64L-G16RevC.02  7-Dec-2021

 ----------------------------------------------------------------
 # td=(nstates=50) b3lyp/6-311+g(2d,p) scrf(smd, solvent=ethanol)
 ----------------------------------------------------------------

 ---
 A-1
 ---
 Symbolic Z-matrix:
 Charge =  1 Multiplicity = 1

                         Standard orientation:
 ---------------------------------------------------------------------
 Center     Atomic      Atomic             Coordinates (Angstroms)
 Number     Number       Type             X           Y           Z
 ---------------------------------------------------------------------
      1          6           0       -1.259214    0.216698   -0.039367
      2          6           0        0.000003    0.828935   -0.000122
      3          6           0        1.259209    0.216684    0.039249
      4          7           0        2.433464    0.904848    0.145998
      5         16           0       -1.557561   -1.512152    0.053882
      6          6           0       -3.297665   -1.258824   -0.027283
      7          6           0       -3.589904    0.108866   -0.118299
      8          7           0       -2.433474    0.904863   -0.146106
      9         16           0        1.557549   -1.512171   -0.053923
     10          6           0        3.297657   -1.258850    0.027304
     11          6           0        3.589900    0.108842    0.118251
     12          6           0       -4.301571   -2.224422   -0.003624
     13          6           0       -5.624645   -1.792125   -0.066975
     14          6           0       -5.925643   -0.425687   -0.149009
     15          6           0       -4.920394    0.538274   -0.174272
     16          6           0        4.301563   -2.224450    0.003718
     17          6           0        5.624635   -1.792149    0.067066
     18          6           0        5.925635   -0.425707    0.149021
     19          6           0        4.920384    0.538258    0.174213
     20          6           0       -2.510348    2.373529   -0.257226
     21          6           0       -2.566433    3.073786    1.101522
     22          6           0        2.510339    2.373497    0.257299
     23          6           0        2.566508    3.073929   -1.101357
     24          1           0        0.000014    1.909040   -0.000214
     25          1           0       -4.060576   -3.280313    0.063971
     26          1           0       -6.427238   -2.522132   -0.049094
     27          1           0       -6.962056   -0.106514   -0.191342
     28          1           0       -5.176748    1.590213   -0.228130
     29          1           0        4.060566   -3.280345   -0.063815
     30          1           0        6.427230   -2.522156    0.049231
     31          1           0        6.962048   -0.106532    0.191339
     32          1           0        5.176733    1.590201    0.228019
     33          1           0       -1.657488    2.708489   -0.852128
     34          1           0       -3.398115    2.597174   -0.852215
     35          1           0       -3.441185    2.752064    1.674572
     36          1           0       -1.673838    2.863356    1.699082
     37          1           0       -2.634230    4.156364    0.954302
     38          1           0        1.657436    2.708379    0.852183
     39          1           0        3.398074    2.597059    0.852370
     40          1           0        3.441334    2.752344   -1.674368
     41          1           0        1.673988    2.863510   -1.699033
     42          1           0        2.634214    4.156493   -0.953990
 ---------------------------------------------------------------------

 SCF Done:  E(RB3LYP) =  -1641.53253972     A.U. after   13 cycles

 Excitation energies and oscillator strengths:

 Excited State   1:      Singlet-A      3.1397 eV  394.89 nm  f=1.2076  <S**2>=0.000
      89 -> 90         0.70472
 This state for optimization and/or second-order correction.
 Total Energy, E(TD-HF/TD-DFT) =  -1641.41715866
 Copying the excited state density for this state as the 1-particle RhoCI density.

 Excited State   2:      Singlet-A      3.7846 eV  327.60 nm  f=0.0007  <S**2>=0.000
      89 -> 91         0.70090

 Excited State   3:      Singlet-A      4.0551 eV  305.75 nm  f=0.0167  <S**2>=0.000
      88 -> 90         0.59613
      89 -> 92        -0.35889

 Excited State   4:      Singlet-A      4.1935 eV  295.65 nm  f=0.0051  <S**2>=0.000
      87 -> 90         0.63432
      89 -> 93         0.28955

 Excited State   5:      Singlet-A      4.3349 eV  286.01 nm  f=0.0459  <S**2>=0.000
      88 -> 90         0.34933
      89 -> 92         0.59385

 Excited State   6:      Singlet-A      4.4693 eV  277.41 nm  f=0.0404  <S**2>=0.000
      87 -> 90        -0.28568
      89 -> 93         0.62393

 Excited State   7:      Singlet-A      4.5062 eV  275.14 nm  f=0.0003  <S**2>=0.000
      86 -> 90         0.66812
      89 -> 94        -0.18042

 Excited State   8:      Singlet-A      4.7276 eV  262.25 nm  f=0.0848  <S**2>=0.000
      86 -> 90         0.16086
      87 -> 92        -0.11922
      89 -> 94         0.64656

 Excited State   9:      Singlet-A      4.8765 eV  254.25 nm  f=0.0018  <S**2>=0.000
      89 -> 95         0.67382

 Excited State  10:      Singlet-A      4.8970 eV  253.19 nm  f=0.0001  <S**2>=0.000
      86 -> 91         0.16493
      88 -> 91         0.56987
      89 -> 97        -0.33208

 Excited State  11:      Singlet-A      5.0314 eV  246.42 nm  f=0.0001  <S**2>=0.000
      86 -> 91        -0.15011
      88 -> 91         0.38464
      89 -> 97         0.54415
      89 -> 98        -0.13640

 Excited State  12:      Singlet-A      5.0439 eV  245.81 nm  f=0.0049  <S**2>=0.000
      89 -> 96         0.68790

 Excited State  13:      Singlet-A      5.1151 eV  242.39 nm  f=0.0075  <S**2>=0.000
      87 -> 91         0.68376
      88 -> 97         0.12125

 Excited State  14:      Singlet-A      5.2929 eV  234.25 nm  f=0.2667  <S**2>=0.000
      85 -> 90         0.51664
      86 -> 92         0.16401
      87 -> 93         0.16013
      87 -> 95        -0.14632
      88 -> 92        -0.31484
      88 -> 94        -0.20525

 Excited State  15:      Singlet-A      5.3819 eV  230.37 nm  f=0.0003  <S**2>=0.000
      86 -> 91         0.66156
      89 -> 97         0.21566

 Excited State  16:      Singlet-A      5.4735 eV  226.52 nm  f=0.0000  <S**2>=0.000
      89 -> 97         0.15718
      89 -> 98         0.66386

 Excited State  17:      Singlet-A      5.5222 eV  224.52 nm  f=0.0056  <S**2>=0.000
      89 -> 97        -0.10145
      89 ->100         0.68105

 Excited State  18:      Singlet-A      5.5243 eV  224.44 nm  f=0.0612  <S**2>=0.000
      85 -> 90        -0.25439
      86 -> 92         0.10422
      88 -> 92        -0.24649
      89 -> 99         0.56577

 Excited State  19:      Singlet-A      5.5865 eV  221.93 nm  f=0.0959  <S**2>=0.000
      86 -> 92         0.30747
      87 -> 95        -0.14804
      88 -> 92         0.51314
      88 -> 94        -0.21659
      89 -> 99         0.19071

 Excited State  20:      Singlet-A      5.6085 eV  221.06 nm  f=0.1879  <S**2>=0.000
      84 -> 90        -0.15536
      86 -> 90         0.10413
      86 -> 93         0.32055
      86 -> 95         0.13153
      87 -> 92         0.40571
      87 -> 94         0.18728
      88 -> 93        -0.21704
      88 -> 95         0.15373
      89 -> 94         0.16210

 Excited State  21:      Singlet-A      5.6245 eV  220.43 nm  f=0.0055  <S**2>=0.000
      85 -> 90        -0.34387
      86 -> 92         0.36051
      86 -> 94        -0.14330
      88 -> 92        -0.13114
      88 -> 94        -0.22545
      89 -> 99        -0.34055

 Excited State  22:      Singlet-A      5.6930 eV  217.79 nm  f=0.0525  <S**2>=0.000
      84 -> 90         0.29560
      86 -> 93         0.27156
      87 -> 94         0.24082
      88 -> 93         0.44532
      88 -> 95         0.22668

 Excited State  23:      Singlet-A      5.7310 eV  216.34 nm  f=0.0018  <S**2>=0.000
      89 ->101         0.61127
      89 ->103        -0.30940

 Excited State  24:      Singlet-A      5.7683 eV  214.94 nm  f=0.0010  <S**2>=0.000
      86 -> 93        -0.20401
      87 -> 92         0.49336
      87 -> 94        -0.13704
      88 -> 93         0.40437
      88 -> 95        -0.13519

 Excited State  25:      Singlet-A      5.8462 eV  212.08 nm  f=0.0005  <S**2>=0.000
      83 -> 90        -0.25065
      86 -> 94        -0.18262
      87 -> 93         0.58420
      88 -> 92         0.15663

 Excited State  26:      Singlet-A      5.8667 eV  211.34 nm  f=0.0095  <S**2>=0.000
      89 ->101         0.31562
      89 ->103         0.60553

 Excited State  27:      Singlet-A      5.9080 eV  209.86 nm  f=0.0000  <S**2>=0.000
      84 -> 90         0.60164
      87 -> 92         0.21803
      88 -> 93        -0.23481

 Excited State  28:      Singlet-A      5.9942 eV  206.84 nm  f=0.0009  <S**2>=0.000
      89 -> 98         0.10219
      89 ->102         0.64333
      89 ->104         0.23708

 Excited State  29:      Singlet-A      5.9944 eV  206.83 nm  f=0.2918  <S**2>=0.000
      83 -> 90         0.58230
      86 -> 92        -0.20655
      87 -> 93         0.27078
      88 -> 94        -0.15294

 Excited State  30:      Singlet-A      6.0515 eV  204.88 nm  f=0.3209  <S**2>=0.000
      83 -> 90         0.24241
      86 -> 92         0.34001
      88 -> 94         0.53633

 Excited State  31:      Singlet-A      6.0572 eV  204.69 nm  f=0.0001  <S**2>=0.000
      89 ->102        -0.25032
      89 ->104         0.63250

 Excited State  32:      Singlet-A      6.1436 eV  201.81 nm  f=0.0047  <S**2>=0.000
      87 -> 94        -0.43908
      88 -> 95         0.51637
      88 -> 96        -0.14026

 Excited State  33:      Singlet-A      6.1914 eV  200.25 nm  f=0.0131  <S**2>=0.000
      89 ->105         0.68735

 Excited State  34:      Singlet-A      6.2077 eV  199.72 nm  f=0.0005  <S**2>=0.000
      86 -> 93         0.13977
      87 -> 94        -0.22940
      87 -> 97        -0.18519
      88 -> 96         0.58841

 Excited State  35:      Singlet-A      6.2149 eV  199.50 nm  f=0.0843  <S**2>=0.000
      86 -> 92         0.18412
      86 -> 94         0.23529
      87 -> 95         0.46722
      87 -> 96        -0.15552
      88 -> 97         0.31940

 Excited State  36:      Singlet-A      6.2524 eV  198.30 nm  f=0.0272  <S**2>=0.000
      86 -> 92        -0.12475
      86 -> 94        -0.19576
      87 -> 95        -0.23656
      87 -> 96        -0.25408
      88 -> 97         0.51598
      89 ->107         0.11953

 Excited State  37:      Singlet-A      6.2667 eV  197.85 nm  f=0.0012  <S**2>=0.000
      85 -> 92         0.13554
      86 -> 93         0.46484
      87 -> 94        -0.28969
      88 -> 95        -0.29293
      88 -> 96        -0.20592

 Excited State  38:      Singlet-A      6.2667 eV  197.84 nm  f=0.0124  <S**2>=0.000
      85 -> 91         0.56091
      86 -> 97         0.21558
      89 ->106        -0.31245

 Excited State  39:      Singlet-A      6.3157 eV  196.31 nm  f=0.0057  <S**2>=0.000
      85 -> 91         0.28577
      86 -> 97         0.13382
      89 ->106         0.56118
      89 ->107        -0.22056

 Excited State  40:      Singlet-A      6.3223 eV  196.11 nm  f=0.0239  <S**2>=0.000
      89 ->106         0.24182
      89 ->107         0.63054

 Excited State  41:      Singlet-A      6.3540 eV  195.13 nm  f=0.0121  <S**2>=0.000
      82 -> 90         0.13324
      86 -> 94         0.19535
      87 -> 96         0.47724
      88 -> 97         0.23848
      88 -> 98        -0.22856
      88 ->100         0.21302

 Excited State  42:      Singlet-A      6.4062 eV  193.54 nm  f=0.2854  <S**2>=0.000
      84 -> 92         0.11633
      85 -> 90        -0.11055
      86 -> 94         0.49051
      87 -> 93         0.11366
      87 -> 95        -0.31949
      87 -> 96        -0.19442
      88 -> 98         0.12781

 Excited State  43:      Singlet-A      6.4376 eV  192.60 nm  f=0.0006  <S**2>=0.000
      87 -> 97         0.64466
      87 -> 98        -0.13199
      88 -> 91        -0.11014
      88 -> 96         0.15929

 Excited State  44:      Singlet-A      6.4588 eV  191.96 nm  f=0.0023  <S**2>=0.000
      82 -> 90         0.67731
      87 -> 96        -0.11001

 Excited State  45:      Singlet-A      6.4752 eV  191.48 nm  f=0.1571  <S**2>=0.000
      86 -> 95         0.64006

 Excited State  46:      Singlet-A      6.5219 eV  190.11 nm  f=0.0002  <S**2>=0.000
      86 -> 96        -0.12454
      89 ->108         0.63062
      89 ->109         0.23122

 Excited State  47:      Singlet-A      6.5749 eV  188.57 nm  f=0.0089  <S**2>=0.000
      86 -> 96         0.38267
      89 ->108        -0.13705
      89 ->109         0.52870
      89 ->110         0.11612

 Excited State  48:      Singlet-A      6.5798 eV  188.43 nm  f=0.0002  <S**2>=0.000
      86 -> 97        -0.20873
      89 ->109        -0.13423
      89 ->110         0.60849
      89 ->111         0.10158
      89 ->115         0.10565

 Excited State  49:      Singlet-A      6.6114 eV  187.53 nm  f=0.0000  <S**2>=0.000
      84 -> 91        -0.10679
      86 -> 96         0.53593
      89 ->108         0.22993
      89 ->109        -0.33348

 Excited State  50:      Singlet-A      6.6263 eV  187.11 nm  f=0.0006  <S**2>=0.000
      83 -> 97        -0.10084
      84 -> 91         0.58745
      87 -> 98         0.17988
      88 ->101         0.22198

 The electronic state is 1-A.
 Alpha  occ. eigenvalues --  -88.90962 -88.90962 -14.40317 -14.40316 -10.29304
 Alpha  occ. eigenvalues --  -10.29302 -10.24535 -10.24535 -10.23229 -10.23229
 Alpha  occ. eigenvalues --  -10.22400 -10.22400 -10.20149 -10.19825 -10.19825
 Alpha  occ. eigenvalues --  -10.19513 -10.19513 -10.18993 -10.18992 -10.18762
 Alpha  occ. eigenvalues --  -10.18762 -10.16846 -10.16846  -7.99502  -7.99501
 Alpha  occ. eigenvalues --   -5.95841  -5.95841  -5.95468  -5.95468  -5.95011
 Alpha  occ. eigenvalues --   -5.95011  -1.02757  -1.02416  -0.88553  -0.88420
 Alpha  occ. eigenvalues --   -0.86447  -0.84346  -0.81214  -0.78325  -0.77909
 Alpha  occ. eigenvalues --   -0.76903  -0.75654  -0.74931  -0.72547  -0.66815
 Alpha  occ. eigenvalues --   -0.66508  -0.66303  -0.63897  -0.61973  -0.61906
 Alpha  occ. eigenvalues --   -0.59751  -0.57419  -0.54104  -0.53524  -0.53357
 Alpha  occ. eigenvalues --   -0.51549  -0.50690  -0.48551  -0.48480  -0.47813
 Alpha  occ. eigenvalues --   -0.46839  -0.46642  -0.46423  -0.46376  -0.44375
 Alpha  occ. eigenvalues --   -0.44103  -0.44026  -0.42723  -0.41186  -0.40994
 Alpha  occ. eigenvalues --   -0.40273  -0.39909  -0.38990  -0.38535  -0.38233
 Alpha  occ. eigenvalues --   -0.37819  -0.37580  -0.36847  -0.36469  -0.36281
 Alpha  occ. eigenvalues --   -0.35809  -0.35389  -0.32932  -0.32398  -0.30580
 Alpha  occ. eigenvalues --   -0.26946  -0.26285  -0.25784  -0.21559
 Alpha virt. eigenvalues --   -0.08618  -0.04414  -0.03832  -0.03220  -0.02368
 Alpha virt. eigenvalues --   -0.01684  -0.00467  -0.00144   0.00801   0.01007
 Alpha virt. eigenvalues --    0.01072   0.01614   0.02470   0.02522   0.02856

 Mulliken charges:
               1
     1  C    0.426084
     2  C   -0.407728
     3  C    0.426006
     4  N    0.166111
     5  S   -0.549454
     6  C    0.557198
     7  C    0.486566
     8  N    0.166068
     9  S   -0.549463
    10  C    0.557234
    11  C    0.486505
    12  C   -0.368781
    13  C   -0.236389
    14  C   -0.221788
    15  C   -0.321633
    16  C   -0.368712
    17  C   -0.236400
    18  C   -0.221823
    19  C   -0.321583
    20  C   -0.218091
    21  C   -0.444072
    22  C   -0.218102
    23  C   -0.444066
    24  H    0.166503
    25  H    0.155042
    26  H    0.136058
    27  H    0.135756
    28  H    0.149071
    29  H    0.155042
    30  H    0.136059
    31  H    0.135756
    32  H    0.149075
    33  H    0.157559
    34  H    0.157055
    35  H    0.151104
    36  H    0.151357
    37  H    0.151901
    38  H    0.157559
    39  H    0.157055
    40  H    0.151104
    41  H    0.151358
    42  H    0.151900
 Sum of Mulliken charges =   1.00000

 Dipole moment (field-independent basis, Debye):
    X=              0.0001    Y=              5.3657    Z=              0.0001  Tot=              5.3657
 Quadrupole moment (field-independent basis, Debye-Ang):
   XX=            -71.0035   YY=           -110.0988   ZZ=           -154.8490
   XY=             -0.0003   XZ=              2.1521   YZ=             -0.0005

 Normal termination of Gaussian 16 at Sat Oct 28 22:41:13 2023.
