 Gaussian 16, Revision C.02,
 Gaussian 16:  ES64L-G16RevC.02  7-Dec-2021

 ----------------------------------------------------------------
 # td=(nstates=150) CAM-b3lyp/def2TZVP scrf(smd, solvent=ethanol)
 ----------------------------------------------------------------

 ---
 A-2
 ---
 Symbolic Z-matrix:
 Charge =  1 Multiplicity = 1

                         Standard orientation:
 ---------------------------------------------------------------------
 Center     Atomic      Atomic             Coordinates (Angstroms)
 Number     Number       Type             X           Y           Z
 ---------------------------------------------------------------------
      1          6           0        1.185932    1.124188    0.259065
      2          6           0       -0.064042    0.518894    0.184736
      3          6           0       -1.255062    1.232433    0.206071
      4          6           0       -2.576908    0.775971    0.134368
      5          6           0        2.392634    0.431471    0.171283
      6         16           0       -3.827667    1.970009   -0.187075
      7          6           0       -5.077877    0.744792   -0.134775
      8          6           0       -4.509195   -0.508640    0.113846
      9          7           0       -3.118372   -0.458179    0.279721
     10         16           0        2.505198   -1.300121   -0.125106
     11          6           0        4.260315   -1.225762   -0.102553
     12          6           0        4.688784    0.087010    0.119416
     13          7           0        3.627512    0.981655    0.287411
     14          6           0        5.159317   -2.267461   -0.279503
     15          6           0        6.517913   -1.973596   -0.237257
     16          6           0        6.953940   -0.663841   -0.025333
     17          6           0        6.051566    0.378213    0.153458
     18          6           0       -6.446804    0.904176   -0.304215
     19          6           0       -7.251229   -0.226106   -0.226408
     20          6           0       -6.689747   -1.482485    0.014868
     21          6           0       -5.320051   -1.640504    0.186250
     22          6           0        3.847144    2.415669    0.554580
     23          6           0        3.911762    3.249637   -0.717632
     24          6           0       -2.369369   -1.660308    0.692423
     25          6           0       -1.918854   -2.522991   -0.479110
     26          1           0        1.228852    2.199196    0.376562
     27          1           0       -0.096636   -0.556945    0.072235
     28          1           0       -1.165193    2.314370    0.224199
     29          1           0        4.813961   -3.279951   -0.448352
     30          1           0        7.240415   -2.768718   -0.373960
     31          1           0        8.015538   -0.449707   -0.002068
     32          1           0        6.406822    1.388085    0.306065
     33          1           0       -6.875736    1.880738   -0.491225
     34          1           0       -8.321880   -0.129159   -0.357431
     35          1           0       -7.330326   -2.354283    0.067360
     36          1           0       -4.901973   -2.621689    0.363736
     37          1           0        3.048585    2.754296    1.212168
     38          1           0        4.772710    2.494849    1.122044
     39          1           0        4.082538    4.295496   -0.452515
     40          1           0        4.728911    2.924468   -1.364544
     41          1           0        2.978199    3.187215   -1.279982
     42          1           0       -1.531667   -1.329317    1.302601
     43          1           0       -3.027666   -2.224702    1.351768
     44          1           0       -1.276100   -1.972556   -1.168349
     45          1           0       -1.359149   -3.379171   -0.096017
     46          1           0       -2.775672   -2.899604   -1.040801
 ---------------------------------------------------------------------

 SCF Done:  E(RCAM-B3LYP) =  -1718.50393432     A.U. after   14 cycles

 Excitation energies and oscillator strengths:

 Excited State   1:      Singlet-A      2.6646 eV  465.30 nm  f=1.6983  <S**2>=0.000
      96 -> 97         0.69641
 This state for optimization and/or second-order correction.
 Total Energy, E(TD-HF/TD-DFT) =  -1718.40601267
 Copying the excited state density for this state as the 1-particle RhoCI density.

 Excited State   2:      Singlet-A      4.5141 eV  274.66 nm  f=0.0578  <S**2>=0.000
      94 -> 97         0.15970
      94 ->100        -0.12733
      95 -> 97         0.59741
      96 -> 98         0.21182

 Excited State   3:      Singlet-A      4.6186 eV  268.45 nm  f=0.0079  <S**2>=0.000
      93 -> 97        -0.27849
      93 ->100        -0.15972
      94 -> 97         0.46414
      95 -> 97        -0.13580
      95 -> 98        -0.14665
      96 -> 99         0.32477

 Excited State   4:      Singlet-A      4.6687 eV  265.56 nm  f=0.0126  <S**2>=0.000
      93 -> 97         0.30269
      94 -> 97         0.11596
      95 -> 97        -0.12180
      95 ->103        -0.14409
      96 -> 98         0.16134
      96 ->100        -0.22361
      96 ->101         0.48130

 Excited State   5:      Singlet-A      4.6842 eV  264.69 nm  f=0.0226  <S**2>=0.000
      93 -> 97        -0.40829
      94 -> 97        -0.18480
      95 -> 97         0.12689
      95 ->103        -0.12392
      96 -> 98        -0.12247
      96 ->100         0.17405
      96 ->101         0.40869

 Excited State   6:      Singlet-A      4.8272 eV  256.84 nm  f=0.0002  <S**2>=0.000
      94 ->103        -0.10102
      95 ->101        -0.22009
      96 ->101        -0.11667
      96 ->103         0.61684

 Excited State   7:      Singlet-A      4.8970 eV  253.18 nm  f=0.1202  <S**2>=0.000
      94 -> 97        -0.31142
      94 -> 98         0.10964
      94 -> 99         0.10350
      95 -> 97        -0.14722
      95 ->102        -0.11323
      96 -> 98         0.42104
      96 -> 99         0.29936

 Excited State   8:      Singlet-A      4.9646 eV  249.74 nm  f=0.0959  <S**2>=0.000
      93 -> 97         0.23082
      93 -> 98         0.12054
      93 -> 99        -0.11339
      94 -> 97        -0.19889
      95 -> 97         0.14295
      95 -> 98        -0.11264
      95 -> 99         0.10236
      96 -> 98        -0.33474
      96 -> 99         0.38773
      96 ->102         0.11557

 Excited State   9:      Singlet-A      5.0621 eV  244.93 nm  f=0.0171  <S**2>=0.000
      93 -> 97         0.25125
      94 -> 97         0.14089
      95 -> 97        -0.12047
      96 ->100         0.58927
      96 ->104        -0.10952

 Excited State  10:      Singlet-A      5.2808 eV  234.78 nm  f=0.1470  <S**2>=0.000
      92 -> 97        -0.25139
      93 -> 98         0.12766
      94 -> 97         0.12327
      94 -> 99         0.14661
      95 ->100        -0.21308
      96 -> 99        -0.22877
      96 ->102         0.48997

 Excited State  11:      Singlet-A      5.5739 eV  222.44 nm  f=0.0386  <S**2>=0.000
      92 -> 97         0.56286
      96 ->102         0.33835
      96 ->104         0.10519

 Excited State  12:      Singlet-A      5.6672 eV  218.78 nm  f=0.0816  <S**2>=0.000
      92 -> 97        -0.11662
      93 -> 99         0.15613
      94 -> 98         0.15699
      94 -> 99         0.10797
      95 ->102        -0.16954
      96 -> 98        -0.15813
      96 ->104         0.54906

 Excited State  13:      Singlet-A      6.0066 eV  206.41 nm  f=0.2198  <S**2>=0.000
      92 -> 97        -0.13881
      93 -> 98        -0.24529
      93 -> 99         0.32760
      93 ->100         0.22636
      93 ->102        -0.12609
      94 -> 98         0.10462
      94 ->100        -0.13059
      96 -> 98        -0.18113
      96 ->100        -0.11031
      96 ->102         0.13152
      96 ->104        -0.29747

 Excited State  14:      Singlet-A      6.0195 eV  205.97 nm  f=0.3026  <S**2>=0.000
      92 -> 97         0.17266
      93 -> 98         0.14686
      93 ->101         0.21981
      93 ->103        -0.13680
      94 -> 98         0.22659
      94 -> 99         0.30421
      94 ->100        -0.12598
      94 ->101        -0.12936
      94 ->102        -0.13470
      96 -> 99        -0.11476
      96 ->102        -0.18800
      96 ->104        -0.13805

 Excited State  15:      Singlet-A      6.0408 eV  205.24 nm  f=0.1019  <S**2>=0.000
      90 ->101         0.13678
      93 ->101         0.35556
      93 ->103        -0.23472
      94 -> 98        -0.14743
      94 -> 99        -0.16933
      94 ->101        -0.25217
      94 ->103        -0.11802
      95 ->103        -0.17717
      96 ->101        -0.16477
      96 ->102         0.10323
      96 ->104         0.13963

 Excited State  16:      Singlet-A      6.0835 eV  203.80 nm  f=0.0157  <S**2>=0.000
      91 ->101         0.10510
      91 ->103         0.12815
      93 ->101         0.27577
      94 ->101         0.17875
      94 ->103         0.45245
      95 ->101         0.18629
      95 ->103         0.18146
      96 ->103         0.22157

 Excited State  17:      Singlet-A      6.1596 eV  201.29 nm  f=0.0270  <S**2>=0.000
      91 -> 97         0.16172
      92 -> 98        -0.12580
      92 -> 99        -0.11734
      94 -> 98         0.27452
      94 -> 99         0.15875
      94 ->100         0.18700
      94 ->102         0.29121
      94 ->104         0.12676
      95 -> 98         0.24408
      95 -> 99         0.24200
      95 ->102         0.11140
      96 -> 98         0.12414
      96 -> 99         0.12430

 Excited State  18:      Singlet-A      6.1809 eV  200.59 nm  f=0.0238  <S**2>=0.000
      90 -> 97         0.11886
      92 -> 99         0.13115
      93 -> 98        -0.26435
      93 -> 99         0.21802
      93 ->100        -0.26128
      93 ->102         0.26511
      93 ->104        -0.12160
      94 -> 98         0.11773
      94 -> 99        -0.13253
      94 ->102        -0.11310
      95 -> 98        -0.20435
      95 -> 99         0.16338
      96 -> 99        -0.13043
      96 ->105        -0.12664

 Excited State  19:      Singlet-A      6.2775 eV  197.51 nm  f=0.0117  <S**2>=0.000
      96 ->105         0.58099
      96 ->107         0.18299
      96 ->108        -0.18051

 Excited State  20:      Singlet-A      6.3912 eV  193.99 nm  f=0.0010  <S**2>=0.000
      90 -> 97        -0.26181
      91 -> 97        -0.24674
      96 ->106        -0.34128
      96 ->107         0.41527
      96 ->108         0.10296

 Excited State  21:      Singlet-A      6.4750 eV  191.48 nm  f=0.0275  <S**2>=0.000
      89 -> 97         0.10531
      90 -> 97         0.52293
      91 -> 97        -0.35022

 Excited State  22:      Singlet-A      6.5030 eV  190.66 nm  f=0.0149  <S**2>=0.000
      90 -> 97         0.25730
      91 -> 97         0.46582
      96 ->106        -0.18544
      96 ->107         0.29176

 Excited State  23:      Singlet-A      6.6299 eV  187.01 nm  f=0.0071  <S**2>=0.000
      88 -> 97         0.12734
      89 -> 97         0.18185
      92 ->101        -0.11134
      95 ->103         0.11455
      96 ->105        -0.14714
      96 ->106         0.41845
      96 ->107         0.31484
      96 ->109         0.15231
      96 ->114         0.10333

 Excited State  24:      Singlet-A      6.6738 eV  185.78 nm  f=0.0138  <S**2>=0.000
      78 -> 97        -0.12868
      84 -> 97         0.20498
      85 -> 97        -0.14207
      86 -> 97        -0.13740
      88 -> 97         0.28403
      89 -> 97         0.39741
      95 ->103        -0.10624
      96 ->105         0.10128
      96 ->106        -0.14591
      96 ->107        -0.10172
      96 ->109        -0.10105

 Excited State  25:      Singlet-A      6.7148 eV  184.64 nm  f=0.0083  <S**2>=0.000
      79 -> 97         0.12726
      80 -> 97        -0.12894
      84 -> 97        -0.22074
      88 -> 97        -0.28428
      89 -> 97         0.45886

 Excited State  26:      Singlet-A      6.7323 eV  184.16 nm  f=0.0118  <S**2>=0.000
      84 -> 97         0.12012
      88 -> 97         0.15395
      92 ->101        -0.15614
      94 ->103        -0.11256
      95 ->103         0.19102
      96 ->106        -0.17837
      96 ->107        -0.11703
      96 ->108        -0.21841
      96 ->109         0.20775
      96 ->110        -0.22747
      96 ->111         0.31318

 Excited State  27:      Singlet-A      6.7606 eV  183.39 nm  f=0.2021  <S**2>=0.000
      92 -> 99        -0.13363
      92 ->101         0.15533
      92 ->103        -0.22096
      93 ->100        -0.13752
      93 ->101        -0.20077
      93 ->102         0.10532
      94 ->101        -0.12009
      95 -> 98         0.19702
      95 -> 99        -0.12528
      95 ->100        -0.12437
      95 ->101         0.36140

 Excited State  28:      Singlet-A      6.7898 eV  182.60 nm  f=0.4701  <S**2>=0.000
      92 -> 98        -0.11614
      92 -> 99         0.19991
      92 ->101         0.11894
      92 ->103        -0.14796
      93 -> 98         0.11710
      93 ->100         0.24360
      93 ->101        -0.11525
      93 ->102        -0.15641
      95 -> 98        -0.27259
      95 -> 99         0.17091
      95 ->101         0.27520

 Excited State  29:      Singlet-A      6.7992 eV  182.35 nm  f=0.3111  <S**2>=0.000
      92 -> 98        -0.23364
      92 -> 99        -0.12692
      93 -> 99        -0.10203
      93 ->102        -0.11893
      94 -> 98        -0.13237
      94 ->100        -0.22218
      94 ->102        -0.24612
      94 ->104        -0.10350
      95 -> 98         0.18286
      95 -> 99         0.37117
      95 ->100        -0.13201
      96 -> 98         0.10553

 Excited State  30:      Singlet-A      6.8732 eV  180.39 nm  f=0.0188  <S**2>=0.000
      92 ->101        -0.17893
      92 ->103        -0.15494
      93 ->103        -0.13222
      94 ->103        -0.14125
      95 ->101         0.11290
      95 ->103         0.31521
      96 ->106        -0.12355
      96 ->107        -0.10516
      96 ->108         0.15302
      96 ->110         0.35477
      96 ->111        -0.13912

 Excited State  31:      Singlet-A      6.9184 eV  179.21 nm  f=0.1734  <S**2>=0.000
      92 ->100         0.11040
      92 ->102        -0.20086
      93 ->100        -0.17980
      94 ->100        -0.15874
      95 ->100         0.44923
      95 ->103         0.10082
      96 ->102         0.11149
      96 ->109        -0.19271
      96 ->111        -0.13707

 Excited State  32:      Singlet-A      6.9577 eV  178.20 nm  f=0.0360  <S**2>=0.000
      92 ->101         0.16757
      92 ->102        -0.11105
      95 ->100         0.20769
      95 ->103        -0.19382
      96 ->109         0.35453
      96 ->110         0.30824
      96 ->111         0.20629

 Excited State  33:      Singlet-A      7.1279 eV  173.94 nm  f=0.0449  <S**2>=0.000
      92 ->100        -0.28668
      92 ->104        -0.13645
      93 ->102        -0.12156
      94 ->102        -0.14108
      95 ->102         0.44246
      96 ->100         0.11632
      96 ->104         0.10188

 Excited State  34:      Singlet-A      7.1801 eV  172.68 nm  f=0.0048  <S**2>=0.000
      80 -> 97         0.12414
      83 -> 97         0.15350
      87 -> 97         0.36858
      95 ->102        -0.10015
      96 ->108         0.24495
      96 ->109         0.10882
      96 ->110        -0.19298
      96 ->113         0.23136
      96 ->115         0.10863
      96 ->116         0.12400

 Excited State  35:      Singlet-A      7.2314 eV  171.45 nm  f=0.0035  <S**2>=0.000
      83 -> 97         0.13068
      87 -> 97         0.45401
      87 ->100         0.10647
      96 ->108        -0.27558
      96 ->109        -0.11172
      96 ->110         0.17853
      96 ->113        -0.16775

 Excited State  36:      Singlet-A      7.3352 eV  169.03 nm  f=0.0011  <S**2>=0.000
      76 -> 97         0.13914
      77 -> 97        -0.10562
      80 -> 97        -0.16229
      85 -> 97         0.29558
      86 -> 97         0.29253
      87 -> 97         0.11320
      88 -> 97         0.38795
      88 ->100        -0.14726

 Excited State  37:      Singlet-A      7.4048 eV  167.44 nm  f=0.0175  <S**2>=0.000
      87 -> 97        -0.11768
      94 ->104        -0.10082
      96 ->105        -0.15767
      96 ->108        -0.29888
      96 ->111        -0.28054
      96 ->112         0.30488
      96 ->113         0.21670
      96 ->117        -0.10327

 Excited State  38:      Singlet-A      7.4388 eV  166.67 nm  f=0.0048  <S**2>=0.000
      84 -> 97         0.14536
      91 ->100        -0.10736
      92 ->102        -0.15328
      93 ->100        -0.11470
      93 ->104         0.12904
      94 ->100        -0.12177
      94 ->102         0.12452
      94 ->104         0.10492
      95 -> 98        -0.11163
      95 ->100        -0.17372
      95 ->104         0.44763

 Excited State  39:      Singlet-A      7.4603 eV  166.19 nm  f=0.0008  <S**2>=0.000
      72 -> 97         0.15855
      80 -> 97        -0.16351
      81 -> 97         0.14587
      83 -> 97        -0.16574
      84 -> 97         0.40682
      85 -> 97         0.14227
      87 -> 97         0.11749
      88 -> 97        -0.24040
      95 ->104        -0.11195

 Excited State  40:      Singlet-A      7.5097 eV  165.10 nm  f=0.0199  <S**2>=0.000
      93 ->100         0.15201
      93 ->102         0.22577
      93 ->104        -0.24592
      93 ->107        -0.12136
      94 -> 98        -0.12807
      94 ->100        -0.27936
      94 ->104         0.37227

 Excited State  41:      Singlet-A      7.5616 eV  163.97 nm  f=0.0383  <S**2>=0.000
      80 -> 97         0.21761
      83 -> 97         0.20925
      84 -> 97         0.13244
      85 -> 97         0.23709
      87 -> 97        -0.12922
      92 ->102         0.13288
      93 ->100        -0.11022
      93 ->104         0.20169
      94 ->100        -0.10793
      94 ->104         0.18967
      95 ->104        -0.17761

 Excited State  42:      Singlet-A      7.5830 eV  163.50 nm  f=0.0459  <S**2>=0.000
      85 -> 97         0.20967
      92 ->102        -0.10409
      93 ->100         0.14594
      93 ->104        -0.22321
      94 ->104        -0.13768
      95 ->104         0.10387
      96 ->106         0.11903
      96 ->109        -0.20425
      96 ->110         0.13121
      96 ->111         0.25049
      96 ->112         0.11414
      96 ->113         0.16813
      96 ->114        -0.13074

 Excited State  43:      Singlet-A      7.6039 eV  163.05 nm  f=0.0077  <S**2>=0.000
      80 -> 97         0.16619
      83 -> 97         0.18632
      85 -> 97         0.27817
      86 -> 97        -0.16486
      93 ->100         0.11186
      93 ->104        -0.16841
      96 ->109         0.13395
      96 ->110        -0.13255
      96 ->111        -0.12320
      96 ->112        -0.12784
      96 ->113        -0.25105
      96 ->114         0.13575

 Excited State  44:      Singlet-A      7.6367 eV  162.35 nm  f=0.0032  <S**2>=0.000
      73 -> 97        -0.11078
      76 -> 97         0.13143
      83 -> 97         0.24439
      84 -> 97         0.12128
      85 -> 97        -0.29193
      86 -> 97         0.39565

 Excited State  45:      Singlet-A      7.6905 eV  161.22 nm  f=0.0056  <S**2>=0.000
      90 ->101         0.19430
      90 ->103        -0.19222
      91 ->101         0.23107
      91 ->103         0.20169
      92 ->103         0.10331
      93 ->101        -0.12342
      94 ->103        -0.11970
      95 ->108        -0.12061
      96 ->109        -0.10000
      96 ->111         0.15071
      96 ->112         0.23572
      96 ->113        -0.19864

 Excited State  46:      Singlet-A      7.6963 eV  161.10 nm  f=0.0023  <S**2>=0.000
      90 ->101         0.43686
      90 ->103        -0.18206
      91 ->103        -0.22280
      93 ->101        -0.15629
      95 ->108         0.11073
      96 ->109         0.10573
      96 ->112        -0.10274
      96 ->114        -0.13505

 Excited State  47:      Singlet-A      7.7551 eV  159.87 nm  f=0.0017  <S**2>=0.000
      73 -> 97         0.11874
      76 -> 97        -0.12284
      78 -> 97        -0.10228
      80 -> 97         0.15163
      82 -> 97        -0.17649
      86 -> 97         0.24934
      90 ->103        -0.11008
      91 ->101         0.18863
      91 ->103         0.29480
      94 ->103        -0.10077
      96 ->112        -0.10187
      96 ->113         0.13169
      96 ->115        -0.10863
      96 ->117         0.12014

 Excited State  48:      Singlet-A      7.7668 eV  159.63 nm  f=0.0032  <S**2>=0.000
      73 -> 97         0.13566
      76 -> 97        -0.14924
      78 -> 97        -0.11935
      79 -> 97        -0.11254
      80 -> 97         0.18027
      82 -> 97        -0.18150
      83 -> 97        -0.15310
      86 -> 97         0.24268
      91 ->101        -0.12260
      91 ->103        -0.18595
      96 ->112         0.15030
      96 ->113        -0.20012
      96 ->117        -0.11366

 Excited State  49:      Singlet-A      7.7852 eV  159.26 nm  f=0.0061  <S**2>=0.000
      91 ->103        -0.11052
      96 ->112         0.11494
      96 ->113         0.14261
      96 ->114         0.37458
      96 ->115        -0.28627
      96 ->118         0.30258

 Excited State  50:      Singlet-A      7.8416 eV  158.11 nm  f=0.0088  <S**2>=0.000
      90 ->101         0.10324
      95 ->109        -0.16146
      96 ->108        -0.14121
      96 ->109        -0.12106
      96 ->112        -0.27272
      96 ->113         0.14030
      96 ->114         0.15989
      96 ->115         0.33356
      96 ->116         0.15895
      96 ->118         0.12689
      96 ->119        -0.12157

 Excited State  51:      Singlet-A      7.8727 eV  157.49 nm  f=0.1125  <S**2>=0.000
      90 -> 98        -0.21917
      91 -> 98         0.33970
      91 -> 99         0.42824
      92 -> 98         0.13421

 Excited State  52:      Singlet-A      7.8861 eV  157.22 nm  f=0.1845  <S**2>=0.000
      90 -> 98        -0.31183
      90 -> 99         0.38342
      90 ->100         0.10772
      91 -> 98        -0.21037
      92 -> 99        -0.13434
      94 -> 99         0.11308
      95 -> 98        -0.10060
      95 ->100         0.11290
      95 ->104         0.15632

 Excited State  53:      Singlet-A      7.9058 eV  156.83 nm  f=0.0019  <S**2>=0.000
      90 -> 98         0.13033
      90 -> 99        -0.10823
      94 -> 98        -0.33388
      94 -> 99         0.37423
      94 ->100         0.16345
      95 -> 98        -0.19434
      95 -> 99         0.19694

 Excited State  54:      Singlet-A      7.9381 eV  156.19 nm  f=0.0141  <S**2>=0.000
      81 -> 97         0.18518
      87 -> 98        -0.10514
      88 -> 98        -0.12776
      88 -> 99        -0.15694
      93 -> 98         0.34423
      93 -> 99         0.38417
      94 -> 98        -0.19320
      95 -> 98         0.10402
      95 -> 99         0.11694

 Excited State  55:      Singlet-A      7.9402 eV  156.15 nm  f=0.0447  <S**2>=0.000
      81 -> 97        -0.26143
      84 -> 97         0.10629
      85 -> 98         0.11664
      87 -> 98         0.14307
      87 -> 99        -0.11213
      88 -> 98         0.15768
      88 -> 99         0.19801
      90 -> 99         0.10658
      93 -> 98         0.30245
      93 -> 99         0.22309
      94 -> 99        -0.19339

 Excited State  56:      Singlet-A      7.9745 eV  155.48 nm  f=0.0637  <S**2>=0.000
      78 -> 97        -0.11863
      80 -> 97         0.16778
      82 -> 97         0.38191
      83 -> 97        -0.24355
      88 -> 98         0.17190
      88 -> 99         0.16914
      92 -> 99         0.15517
      94 -> 98        -0.11208
      95 -> 98         0.11711
      96 ->115        -0.10193

 Excited State  57:      Singlet-A      7.9834 eV  155.30 nm  f=0.0179  <S**2>=0.000
      73 -> 97         0.15809
      79 -> 97        -0.11275
      80 -> 97        -0.12532
      83 -> 97         0.12858
      84 -> 98        -0.11404
      85 -> 99         0.16783
      87 -> 98        -0.23642
      87 -> 99         0.30976
      87 ->100         0.11164
      88 -> 98         0.24867

 The electronic state is 1-A.
 Alpha  occ. eigenvalues --  -88.98098 -88.97969 -14.47695 -14.47218 -10.36558
 Alpha  occ. eigenvalues --  -10.36141 -10.31575 -10.31462 -10.30193 -10.30118
 Alpha  occ. eigenvalues --  -10.29588 -10.29322 -10.29061 -10.26871 -10.26812
 Alpha  occ. eigenvalues --  -10.26593 -10.26477 -10.26091 -10.26086 -10.26011
 Alpha  occ. eigenvalues --  -10.25868 -10.25760 -10.25652 -10.24025 -10.23818
 Alpha  occ. eigenvalues --   -8.05845  -8.05719  -6.02233  -6.02116  -6.01848
 Alpha  occ. eigenvalues --   -6.01729  -6.01454  -6.01313  -1.10736  -1.10538
 Alpha  occ. eigenvalues --   -0.96539  -0.96427  -0.94004  -0.93052  -0.90627
 Alpha  occ. eigenvalues --   -0.87368  -0.85868  -0.85584  -0.84081  -0.83222
 Alpha  occ. eigenvalues --   -0.82480  -0.79090  -0.74243  -0.73888  -0.73645
 Alpha  occ. eigenvalues --   -0.71333  -0.69980  -0.68972  -0.67780  -0.65006
 Alpha  occ. eigenvalues --   -0.64550  -0.60841  -0.60185  -0.60091  -0.57926
 Alpha  occ. eigenvalues --   -0.57017  -0.55108  -0.55090  -0.54968  -0.53979
 Alpha  occ. eigenvalues --   -0.53461  -0.53221  -0.52644  -0.52104  -0.50927
 Alpha  occ. eigenvalues --   -0.50492  -0.48925  -0.48200  -0.47597  -0.47444
 Alpha  occ. eigenvalues --   -0.46679  -0.46233  -0.45407  -0.45289  -0.44296
 Alpha  occ. eigenvalues --   -0.43972  -0.43709  -0.43576  -0.42921  -0.42424
 Alpha  occ. eigenvalues --   -0.42088  -0.41757  -0.41551  -0.39312  -0.38355
 Alpha  occ. eigenvalues --   -0.38241  -0.34355  -0.31031  -0.30925  -0.30758
 Alpha  occ. eigenvalues --   -0.24152
 Alpha virt. eigenvalues --   -0.06101   0.01424   0.01493   0.02000   0.03105
 Alpha virt. eigenvalues --    0.03252   0.03839   0.05391   0.07732   0.08209
 Alpha virt. eigenvalues --    0.09267   0.09756   0.10121   0.10392   0.10956

 Mulliken charges:
               1
     1  C   -0.340030
     2  C   -0.062952
     3  C   -0.326591
     4  C    0.191100
     5  C    0.230600
     6  S    0.079774
     7  C   -0.005663
     8  C    0.178375
     9  N    0.012594
    10  S    0.045308
    11  C    0.008480
    12  C    0.164001
    13  N    0.001229
    14  C   -0.199818
    15  C   -0.171225
    16  C   -0.151136
    17  C   -0.261859
    18  C   -0.192096
    19  C   -0.168332
    20  C   -0.154379
    21  C   -0.265119
    22  C   -0.176700
    23  C   -0.392711
    24  C   -0.228584
    25  C   -0.393232
    26  H    0.182103
    27  H    0.185636
    28  H    0.170805
    29  H    0.180336
    30  H    0.173390
    31  H    0.174346
    32  H    0.188879
    33  H    0.180821
    34  H    0.173979
    35  H    0.174956
    36  H    0.193065
    37  H    0.168498
    38  H    0.168876
    39  H    0.149111
    40  H    0.147538
    41  H    0.147983
    42  H    0.184564
    43  H    0.177011
    44  H    0.149885
    45  H    0.152230
    46  H    0.154953
 Sum of Mulliken charges =   1.00000

 Dipole moment (field-independent basis, Debye):
    X=              1.0966    Y=              0.2017    Z=              1.2652  Tot=              1.6865
 Quadrupole moment (field-independent basis, Debye-Ang):
   XX=            -54.4469   YY=           -126.4946   ZZ=           -166.7835
   XY=             15.3665   XZ=              1.6223   YZ=              0.8874

 Normal termination of Gaussian 16 at Sat Nov  4 04:55:58 2023.
