 Gaussian 16, Revision C.02,
 Gaussian 16:  ES64L-G16RevC.02  7-Dec-2021

 ----------------------------------------------------------------
 # td=(nstates=150) CAM-b3lyp/def2TZVP scrf(smd, solvent=ethanol)
 ----------------------------------------------------------------

 ---
 A-3
 ---
 Symbolic Z-matrix:
 Charge =  1 Multiplicity = 1

                         Standard orientation:
 ---------------------------------------------------------------------
 Center     Atomic      Atomic             Coordinates (Angstroms)
 Number     Number       Type             X           Y           Z
 ---------------------------------------------------------------------
      1          6           0       -2.428041    1.066524   -0.253176
      2          6           0       -1.163701    0.479343   -0.188922
      3          6           0        0.041805    1.173916   -0.256816
      4          6           0        1.286450    0.541332   -0.181046
      5          6           0       -3.632364    0.360929   -0.172103
      6         16           0       -3.731682   -1.381240    0.072853
      7          6           0       -5.492381   -1.316150    0.079346
      8          6           0       -5.937414    0.002523   -0.102460
      9          7           0       -4.878726    0.909623   -0.261587
     10          6           0       -6.386349   -2.371189    0.240698
     11          6           0       -7.751214   -2.085245    0.223608
     12          6           0       -8.201765   -0.770406    0.051330
     13          6           0       -7.306986    0.285734   -0.111525
     14          6           0       -5.109277    2.349928   -0.473641
     15          6           0       -5.164583    3.142776    0.833251
     16          6           0        2.499506    1.229230   -0.203687
     17          6           0        3.822110    0.764058   -0.127091
     18         16           0        5.094002    1.944187    0.172030
     19          6           0        6.326179    0.693711    0.140374
     20          6           0        5.740783   -0.561555   -0.088266
     21          7           0        4.346445   -0.488644   -0.256376
     22          6           0        7.702092    0.835001    0.309547
     23          6           0        8.493059   -0.310930    0.250826
     24          6           0        7.913914   -1.567173    0.028296
     25          6           0        6.538273   -1.709565   -0.142327
     26          6           0        3.573454   -1.678630   -0.651238
     27          6           0        3.111260   -2.522112    0.538719
     28          1           0       -2.480232    2.144966   -0.359543
     29          1           0       -1.101764   -0.604050   -0.075964
     30          1           0        0.014895    2.256753   -0.370616
     31          1           0        1.271155   -0.537990   -0.061902
     32          1           0       -6.030956   -3.387372    0.377927
     33          1           0       -8.467850   -2.890478    0.348789
     34          1           0       -9.267265   -0.563876    0.046694
     35          1           0       -7.675558    1.298131   -0.232690
     36          1           0       -4.320988    2.718242   -1.133807
     37          1           0       -6.043470    2.442277   -1.031819
     38          1           0       -4.221825    3.066705    1.383681
     39          1           0       -5.350379    4.199206    0.614515
     40          1           0       -5.968923    2.780771    1.480961
     41          1           0        2.426074    2.314290   -0.229676
     42          1           0        8.144449    1.810753    0.482525
     43          1           0        9.567045   -0.226720    0.381606
     44          1           0        8.544040   -2.450028   -0.009720
     45          1           0        6.108776   -2.691785   -0.303762
     46          1           0        2.735494   -1.334144   -1.259472
     47          1           0        4.216087   -2.264286   -1.313807
     48          1           0        3.963720   -2.884064    1.121248
     49          1           0        2.464779   -1.951800    1.212975
     50          1           0        2.552692   -3.391803    0.177306
 ---------------------------------------------------------------------

 SCF Done:  E(RCAM-B3LYP) =  -1795.88882008     A.U. after   15 cycles

 Excitation energies and oscillator strengths:

 Excited State   1:      Singlet-A      2.2920 eV  540.94 nm  f=2.2907  <S**2>=0.000
     102 ->105         0.10601
     103 ->104         0.69438
 This state for optimization and/or second-order correction.
 Total Energy, E(TD-HF/TD-DFT) =  -1795.80458965
 Copying the excited state density for this state as the 1-particle RhoCI density.

 Excited State   2:      Singlet-A      4.1123 eV  301.49 nm  f=0.0639  <S**2>=0.000
     102 ->104         0.64287
     103 ->105         0.22128

 Excited State   3:      Singlet-A      4.4951 eV  275.82 nm  f=0.0047  <S**2>=0.000
     101 ->104         0.48863
     101 ->105        -0.15102
     102 ->107        -0.10415
     103 ->105         0.24157
     103 ->106         0.22633
     103 ->107         0.26499

 Excited State   4:      Singlet-A      4.5264 eV  273.92 nm  f=0.0481  <S**2>=0.000
     100 ->104         0.50855
     100 ->105         0.15137
     102 ->107        -0.11605
     103 ->105        -0.21841
     103 ->106         0.23069
     103 ->107        -0.21900

 Excited State   5:      Singlet-A      4.5569 eV  272.08 nm  f=0.0209  <S**2>=0.000
     100 ->104         0.25811
     101 ->104        -0.17395
     102 ->104        -0.22272
     102 ->106         0.12201
     103 ->105         0.52438

 Excited State   6:      Singlet-A      4.6436 eV  267.00 nm  f=0.0073  <S**2>=0.000
     100 ->109         0.13389
     102 ->109         0.22808
     103 ->105         0.12179
     103 ->109         0.60646

 Excited State   7:      Singlet-A      4.6941 eV  264.13 nm  f=0.0011  <S**2>=0.000
     101 ->110         0.13985
     102 ->110        -0.21940
     103 ->110         0.61981

 Excited State   8:      Singlet-A      4.7836 eV  259.18 nm  f=0.1336  <S**2>=0.000
     101 ->104         0.38969
     102 ->106         0.12728
     102 ->107         0.11579
     103 ->106        -0.38616
     103 ->107        -0.31433

 Excited State   9:      Singlet-A      4.8364 eV  256.36 nm  f=0.0530  <S**2>=0.000
     100 ->104         0.34076
     100 ->108         0.10250
     102 ->106        -0.13779
     102 ->107         0.10602
     103 ->106        -0.31329
     103 ->107         0.39236
     103 ->108         0.11497

 Excited State  10:      Singlet-A      5.0346 eV  246.27 nm  f=0.0575  <S**2>=0.000
      99 ->104         0.46073
     100 ->107         0.11001
     102 ->105         0.16285
     103 ->106        -0.19840
     103 ->108        -0.35958

 Excited State  11:      Singlet-A      5.2280 eV  237.16 nm  f=0.0292  <S**2>=0.000
      99 ->104         0.45994
     102 ->111         0.13414
     103 ->108         0.46966

 Excited State  12:      Singlet-A      5.3222 eV  232.96 nm  f=0.0184  <S**2>=0.000
     101 ->106        -0.13106
     101 ->107        -0.13377
     102 ->108         0.20161
     103 ->107        -0.15888
     103 ->111         0.56201

 Excited State  13:      Singlet-A      5.7811 eV  214.46 nm  f=0.0322  <S**2>=0.000
      98 ->104         0.38375
      99 ->105         0.13739
     100 ->106        -0.18859
     100 ->107         0.21516
     100 ->108        -0.14387
     101 ->106         0.12078
     101 ->107         0.14787
     101 ->108         0.10286
     103 ->105        -0.12277
     103 ->107         0.15215
     103 ->111         0.29301

 Excited State  14:      Singlet-A      5.8606 eV  211.56 nm  f=0.3851  <S**2>=0.000
      99 ->104        -0.15119
      99 ->106         0.15600
     100 ->106        -0.18784
     100 ->107         0.24207
     100 ->108        -0.12756
     101 ->106        -0.22272
     101 ->107        -0.23145
     101 ->108        -0.15292
     101 ->111         0.12220
     102 ->105         0.16288
     103 ->106        -0.22205
     103 ->108         0.23724

 Excited State  15:      Singlet-A      5.9803 eV  207.32 nm  f=0.0009  <S**2>=0.000
      96 ->109         0.16406
     100 ->109         0.52490
     101 ->110         0.19457
     103 ->109        -0.18991
     103 ->112        -0.17665
     103 ->117        -0.11966

 Excited State  16:      Singlet-A      6.0312 eV  205.57 nm  f=0.0150  <S**2>=0.000
      97 ->110         0.15145
      98 ->104        -0.12063
     100 ->109        -0.26168
     101 ->106         0.12508
     101 ->110         0.47285
     103 ->110        -0.19261
     103 ->112        -0.15880

 Excited State  17:      Singlet-A      6.0563 eV  204.72 nm  f=0.0580  <S**2>=0.000
      98 ->104         0.50276
      99 ->107         0.13660
     100 ->106         0.12767
     100 ->107        -0.13427
     101 ->106        -0.10914
     101 ->107        -0.13390
     101 ->110         0.12633
     102 ->106        -0.13411

 Excited State  18:      Singlet-A      6.0687 eV  204.30 nm  f=0.0650  <S**2>=0.000
      99 ->106         0.13411
      99 ->107         0.10309
     101 ->105        -0.25958
     101 ->106         0.34330
     101 ->107         0.23782
     101 ->108        -0.20263
     101 ->110        -0.16680
     101 ->111         0.18218
     102 ->106        -0.14447
     102 ->107        -0.16722
     103 ->106        -0.11704

 Excited State  19:      Singlet-A      6.0871 eV  203.68 nm  f=0.0302  <S**2>=0.000
      99 ->106         0.11315
      99 ->107        -0.13463
     100 ->105         0.32767
     100 ->106         0.28124
     100 ->107        -0.21066
     100 ->108        -0.29147
     100 ->111        -0.15361
     102 ->106         0.14193
     102 ->107        -0.13109
     103 ->107         0.11199

 Excited State  20:      Singlet-A      6.1532 eV  201.50 nm  f=0.0015  <S**2>=0.000
      96 ->104        -0.10235
     100 ->109         0.12561
     101 ->110         0.20916
     102 ->105        -0.14379
     103 ->112         0.46877
     103 ->113         0.16691
     103 ->114        -0.21048
     103 ->117         0.11917

 Excited State  21:      Singlet-A      6.2493 eV  198.40 nm  f=0.0071  <S**2>=0.000
      96 ->104         0.22755
      97 ->104         0.16438
     103 ->112         0.18643
     103 ->114         0.43048
     103 ->115        -0.31543

 Excited State  22:      Singlet-A      6.2869 eV  197.21 nm  f=0.0242  <S**2>=0.000
     102 ->105         0.26686
     103 ->112         0.23830
     103 ->113        -0.36239
     103 ->115         0.36660

 Excited State  23:      Singlet-A      6.3399 eV  195.56 nm  f=0.0007  <S**2>=0.000
      96 ->104         0.49368
      96 ->105         0.10743
      97 ->104        -0.15408
     102 ->105        -0.25916
     102 ->107        -0.11868
     103 ->113        -0.11611
     103 ->114        -0.13272

 Excited State  24:      Singlet-A      6.3649 eV  194.79 nm  f=0.0419  <S**2>=0.000
      96 ->104         0.25858
      96 ->105         0.10617
      97 ->104         0.38133
     102 ->105         0.13425
     103 ->113         0.26020
     103 ->114        -0.11596
     103 ->115         0.18016
     103 ->116        -0.23260

 Excited State  25:      Singlet-A      6.3702 eV  194.63 nm  f=0.0316  <S**2>=0.000
      96 ->104        -0.15312
      97 ->104         0.44793
      97 ->105        -0.13256
     102 ->105        -0.24116
     102 ->107        -0.12894
     103 ->113        -0.22964
     103 ->116         0.19666

 Excited State  26:      Singlet-A      6.4328 eV  192.74 nm  f=0.0305  <S**2>=0.000
      96 ->104        -0.10620
     102 ->105        -0.28280
     102 ->107        -0.10244
     103 ->114         0.31177
     103 ->115         0.28014
     103 ->116        -0.30033
     103 ->117         0.17054

 Excited State  27:      Singlet-A      6.4683 eV  191.68 nm  f=0.0034  <S**2>=0.000
      86 ->104        -0.11989
      87 ->104        -0.10558
      88 ->104        -0.12068
      89 ->104         0.15572
      90 ->104        -0.35242
      91 ->104        -0.18961
      92 ->104        -0.23105
      94 ->104         0.39257

 Excited State  28:      Singlet-A      6.5328 eV  189.79 nm  f=0.0079  <S**2>=0.000
      99 ->109        -0.23584
     100 ->109         0.15563
     102 ->109        -0.26381
     102 ->110         0.10471
     103 ->112        -0.14053
     103 ->113         0.13497
     103 ->116         0.29354
     103 ->117         0.24400
     103 ->118        -0.22573
     103 ->123         0.11593

 Excited State  29:      Singlet-A      6.6150 eV  187.43 nm  f=0.1392  <S**2>=0.000
      99 ->107        -0.10313
      99 ->110        -0.17595
     101 ->105        -0.16082
     101 ->108        -0.15203
     101 ->111         0.13429
     102 ->106         0.20418
     102 ->107         0.13909
     102 ->110         0.25146
     103 ->112        -0.13367
     103 ->113        -0.15643
     103 ->114        -0.14770
     103 ->115        -0.18736
     103 ->117         0.16086
     103 ->119         0.21241

 Excited State  30:      Singlet-A      6.6248 eV  187.15 nm  f=0.7162  <S**2>=0.000
      99 ->106        -0.22574
      99 ->107         0.11619
     100 ->105         0.26208
     100 ->107         0.11744
     100 ->108        -0.26583
     100 ->111        -0.11238
     102 ->105        -0.12214
     102 ->106        -0.16165
     102 ->107         0.35262
     103 ->106         0.10651

 Excited State  31:      Singlet-A      6.6351 eV  186.86 nm  f=0.2060  <S**2>=0.000
      99 ->107        -0.17473
     101 ->105        -0.21825
     101 ->108        -0.19398
     101 ->111         0.14147
     102 ->106         0.31799
     103 ->113         0.13895
     103 ->114         0.14712
     103 ->115         0.14587
     103 ->116         0.10619
     103 ->119        -0.18980

 Excited State  32:      Singlet-A      6.6575 eV  186.23 nm  f=0.0168  <S**2>=0.000
      99 ->109         0.24327
      99 ->110        -0.21729
     101 ->110         0.10327
     102 ->109         0.37049
     102 ->110         0.25328
     103 ->109        -0.11845
     103 ->110         0.10296
     103 ->116         0.16362
     103 ->118        -0.15520

 Excited State  33:      Singlet-A      6.7316 eV  184.18 nm  f=0.0074  <S**2>=0.000
      99 ->109        -0.15020
      99 ->110        -0.19763
     102 ->109        -0.13088
     102 ->110         0.34759
     103 ->110         0.10570
     103 ->117        -0.32704
     103 ->118         0.16248
     103 ->119        -0.24628

 Excited State  34:      Singlet-A      6.8342 eV  181.42 nm  f=0.0217  <S**2>=0.000
      83 ->104         0.15853
      85 ->104        -0.12170
      86 ->104        -0.12127
      88 ->104        -0.16662
      89 ->104         0.26221
      90 ->104         0.15789
      91 ->104        -0.23751
      94 ->104        -0.20223
      95 ->104         0.34849

 Excited State  35:      Singlet-A      6.8554 eV  180.86 nm  f=0.0618  <S**2>=0.000
      98 ->108         0.11696
      99 ->105        -0.24438
      99 ->107        -0.12401
      99 ->111         0.18763
     100 ->106        -0.10958
     100 ->107         0.11542
     102 ->108         0.43891
     103 ->111        -0.13625

 Excited State  36:      Singlet-A      6.9433 eV  178.57 nm  f=0.0682  <S**2>=0.000
      83 ->104        -0.11684
      86 ->104         0.12514
      88 ->104         0.15666
      89 ->104        -0.18415
      91 ->104         0.13596
      95 ->104         0.46473
      98 ->105         0.12613
      99 ->108        -0.12219
     102 ->108         0.11228
     102 ->111        -0.16242

 Excited State  37:      Singlet-A      7.0140 eV  176.77 nm  f=0.0136  <S**2>=0.000
      95 ->104         0.16145
      99 ->108         0.12351
     101 ->105        -0.10486
     101 ->111        -0.11662
     102 ->111         0.20577
     102 ->118         0.11617
     103 ->113         0.15680
     103 ->116         0.14732
     103 ->118         0.34194
     103 ->119         0.20151
     103 ->121        -0.19147
     103 ->123         0.14257

 Excited State  38:      Singlet-A      7.0288 eV  176.40 nm  f=0.0608  <S**2>=0.000
      95 ->104         0.21529
      99 ->108         0.19911
     101 ->105        -0.10927
     101 ->111        -0.14033
     102 ->111         0.32617
     103 ->108        -0.10591
     103 ->118        -0.21722
     103 ->119        -0.10669
     103 ->121         0.10832
     103 ->123        -0.12542

 Excited State  39:      Singlet-A      7.1151 eV  174.26 nm  f=0.0094  <S**2>=0.000
      82 ->104        -0.12005
      85 ->104        -0.10372
      88 ->104         0.18214
      89 ->104         0.12259
      93 ->104         0.44205
      93 ->105         0.14532
     101 ->105        -0.12209
     101 ->111        -0.10368
     103 ->113         0.10398
     103 ->119         0.19764
     103 ->120        -0.11571
     103 ->125         0.12030

 Excited State  40:      Singlet-A      7.1404 eV  173.64 nm  f=0.0609  <S**2>=0.000
      88 ->104         0.10042
      93 ->104         0.19403
     100 ->105         0.13462
     100 ->108         0.10152
     100 ->111         0.11137
     101 ->105         0.36133
     101 ->111         0.32436
     102 ->111         0.15364
     103 ->118         0.10255

 Excited State  41:      Singlet-A      7.1657 eV  173.03 nm  f=0.0623  <S**2>=0.000
      93 ->104        -0.18307
      99 ->108        -0.10141
     100 ->104        -0.10778
     100 ->105         0.36617
     100 ->108         0.20760
     100 ->111         0.28687
     100 ->114         0.13626
     102 ->111        -0.14699
     103 ->119         0.16836
     103 ->125         0.10868

 Excited State  42:      Singlet-A      7.1719 eV  172.87 nm  f=0.0650  <S**2>=0.000
      93 ->104         0.19846
     100 ->105         0.18111
     100 ->111         0.12836
     101 ->105        -0.16599
     101 ->111        -0.15268
     102 ->111        -0.10164
     103 ->113        -0.10324
     103 ->117         0.11085
     103 ->118         0.14408
     103 ->119        -0.21703
     103 ->120         0.17145
     103 ->123         0.22663
     103 ->125        -0.20970

 Excited State  43:      Singlet-A      7.2776 eV  170.36 nm  f=0.0007  <S**2>=0.000
      78 ->104         0.11274
      81 ->104        -0.13949
      87 ->104         0.17467
      90 ->104         0.27344
      92 ->104         0.20741
      94 ->104         0.40554
      94 ->105        -0.15674
     103 ->123         0.12012

 Excited State  44:      Singlet-A      7.2948 eV  169.96 nm  f=0.0072  <S**2>=0.000
      94 ->104        -0.15256
     102 ->116        -0.13573
     103 ->117        -0.11955
     103 ->119         0.18159
     103 ->121         0.16802
     103 ->122        -0.22480
     103 ->123         0.39412
     103 ->124        -0.10764
     103 ->125        -0.10584
     103 ->126        -0.20273

 Excited State  45:      Singlet-A      7.3489 eV  168.71 nm  f=0.0020  <S**2>=0.000
      78 ->104         0.20807
      80 ->104        -0.12215
      82 ->104         0.12577
      84 ->104         0.10408
      85 ->104         0.22753
      88 ->104        -0.23039
      89 ->104        -0.20102
      92 ->104        -0.17051
      93 ->104         0.27315
      93 ->105         0.10900
     103 ->117        -0.10628
     103 ->118        -0.10693
     103 ->120         0.10380
     103 ->121        -0.14156

 Excited State  46:      Singlet-A      7.3927 eV  167.71 nm  f=0.0004  <S**2>=0.000
      85 ->104         0.11319
      89 ->104        -0.14587
      91 ->104        -0.14629
      92 ->104        -0.11126
     103 ->112        -0.12791
     103 ->117         0.20204
     103 ->118         0.18849
     103 ->119        -0.11309
     103 ->120        -0.29575
     103 ->121         0.32495

 Excited State  47:      Singlet-A      7.4412 eV  166.62 nm  f=0.0010  <S**2>=0.000
      86 ->104        -0.20252
      88 ->104        -0.20785
      89 ->104         0.18186
      91 ->104         0.51261
     103 ->120        -0.10137

 Excited State  48:      Singlet-A      7.4853 eV  165.64 nm  f=0.0023  <S**2>=0.000
      99 ->105        -0.22243
      99 ->111        -0.12737
     102 ->117        -0.12885
     103 ->116        -0.13757
     103 ->118        -0.10603
     103 ->120        -0.20460
     103 ->121        -0.16551
     103 ->122         0.19103
     103 ->123         0.23011
     103 ->125         0.22815
     103 ->127        -0.11356

 Excited State  49:      Singlet-A      7.5190 eV  164.89 nm  f=0.0039  <S**2>=0.000
      90 ->104        -0.23696
      92 ->104         0.37362
      99 ->105         0.33367
      99 ->111         0.15111
     102 ->108         0.12444

 Excited State  50:      Singlet-A      7.5324 eV  164.60 nm  f=0.0023  <S**2>=0.000
      88 ->104        -0.11191
      90 ->104        -0.23791
      92 ->104         0.35603
      99 ->105        -0.33318
      99 ->111        -0.14595
     102 ->108        -0.13084
     103 ->121         0.11376

 Excited State  51:      Singlet-A      7.6338 eV  162.41 nm  f=0.0045  <S**2>=0.000
      96 ->109         0.46725
      97 ->109         0.12319
      98 ->109        -0.19737
      99 ->109        -0.15013
     100 ->109        -0.20117
     102 ->109         0.10313
     103 ->125         0.15592

 Excited State  52:      Singlet-A      7.6519 eV  162.03 nm  f=0.0015  <S**2>=0.000
      97 ->110         0.36132
      98 ->110         0.22004
      99 ->110        -0.14800
     101 ->110        -0.17683
     101 ->117         0.10862
     102 ->110        -0.11258
     103 ->120        -0.12707
     103 ->121        -0.17110
     103 ->122        -0.26609

 Excited State  53:      Singlet-A      7.6769 eV  161.50 nm  f=0.0463  <S**2>=0.000
      98 ->106        -0.21299
      98 ->107         0.22185
      99 ->106        -0.26592
      99 ->107         0.29058
     102 ->106         0.25552
     102 ->107        -0.25990

 Excited State  54:      Singlet-A      7.7041 eV  160.93 nm  f=0.0597  <S**2>=0.000
      97 ->106        -0.15127
      97 ->107        -0.11527
      98 ->106        -0.24823
      98 ->107        -0.22729
      99 ->106         0.28204
      99 ->107         0.24216
     102 ->106         0.24050
     102 ->107         0.22365

 Excited State  55:      Singlet-A      7.7394 eV  160.20 nm  f=0.0047  <S**2>=0.000
      77 ->104         0.16037
      81 ->104        -0.17124
      83 ->104         0.10149
      86 ->104         0.27563
      87 ->104         0.28626
      89 ->104         0.12056
      89 ->105         0.14602
      90 ->104        -0.14559
      92 ->104        -0.12226
      96 ->106         0.13995
      96 ->107        -0.10851
      97 ->107        -0.11843
     102 ->108         0.12916

 Excited State  56:      Singlet-A      7.7552 eV  159.87 nm  f=0.0052  <S**2>=0.000
      97 ->110         0.26393
     103 ->120         0.16770
     103 ->121         0.14617
     103 ->122         0.34149
     103 ->124        -0.21287
     103 ->125         0.12358
     103 ->126        -0.17461

 Excited State  57:      Singlet-A      7.7871 eV  159.22 nm  f=0.0154  <S**2>=0.000
      78 ->104        -0.14547
      85 ->104        -0.14965
      87 ->104        -0.10849
      88 ->104        -0.21842
      89 ->104        -0.12959
      96 ->106         0.27810
      96 ->107        -0.24272
      97 ->107        -0.17168
      98 ->108        -0.10505
     102 ->108         0.17396
     103 ->124        -0.13402

 Excited State  58:      Singlet-A      7.8037 eV  158.88 nm  f=0.0131  <S**2>=0.000
      96 ->109         0.22762
      97 ->106         0.10738
     102 ->120        -0.11308
     103 ->118        -0.10846
     103 ->120        -0.18840
     103 ->122         0.15729
     103 ->124        -0.24269
     103 ->125        -0.20813
     103 ->126         0.25073

 Excited State  59:      Singlet-A      7.8055 eV  158.84 nm  f=0.0105  <S**2>=0.000
      97 ->110         0.24942
     103 ->121         0.20756
     103 ->123         0.12043
     103 ->124         0.38939
     103 ->126         0.23585

 Excited State  60:      Singlet-A      7.8249 eV  158.45 nm  f=0.1075  <S**2>=0.000
      84 ->104        -0.14110
      85 ->104         0.12523
      96 ->106         0.11242
      96 ->107        -0.26205
      97 ->106         0.36100

 The electronic state is 1-A.
 Alpha  occ. eigenvalues --  -88.98113 -88.97913 -14.47569 -14.47108 -10.36514
 Alpha  occ. eigenvalues --  -10.36067 -10.31694 -10.31565 -10.30294 -10.30190
 Alpha  occ. eigenvalues --  -10.29567 -10.29349 -10.28388 -10.28347 -10.26981
 Alpha  occ. eigenvalues --  -10.26903 -10.26710 -10.26577 -10.26208 -10.26108
 Alpha  occ. eigenvalues --  -10.26025 -10.25968 -10.25842 -10.25604 -10.24910
 Alpha  occ. eigenvalues --  -10.24069 -10.23901  -8.05839  -8.05642  -6.02229
 Alpha  occ. eigenvalues --   -6.02041  -6.01846  -6.01656  -6.01448  -6.01236
 Alpha  occ. eigenvalues --   -1.10288  -1.10087  -0.96257  -0.96134  -0.93589
 Alpha  occ. eigenvalues --   -0.93077  -0.91221  -0.88714  -0.86190  -0.85540
 Alpha  occ. eigenvalues --   -0.85113  -0.83390  -0.82889  -0.81951  -0.78580
 Alpha  occ. eigenvalues --   -0.74311  -0.73713  -0.73524  -0.71099  -0.70237
 Alpha  occ. eigenvalues --   -0.68940  -0.68005  -0.65608  -0.64629  -0.63725
 Alpha  occ. eigenvalues --   -0.60082  -0.59963  -0.59562  -0.58532  -0.56790
 Alpha  occ. eigenvalues --   -0.56061  -0.54802  -0.54757  -0.53757  -0.53503
 Alpha  occ. eigenvalues --   -0.53009  -0.52871  -0.52025  -0.50777  -0.50633
 Alpha  occ. eigenvalues --   -0.50305  -0.48720  -0.47756  -0.47427  -0.47250
 Alpha  occ. eigenvalues --   -0.46649  -0.46151  -0.45559  -0.45023  -0.44458
 Alpha  occ. eigenvalues --   -0.43984  -0.43786  -0.43652  -0.43318  -0.42638
 Alpha  occ. eigenvalues --   -0.42218  -0.41963  -0.41717  -0.41475  -0.40919
 Alpha  occ. eigenvalues --   -0.38225  -0.38139  -0.36597  -0.33059  -0.30931
 Alpha  occ. eigenvalues --   -0.30817  -0.29482  -0.23048
 Alpha virt. eigenvalues --   -0.07072   0.00683   0.01445   0.01506   0.02945
 Alpha virt. eigenvalues --    0.03264   0.03758   0.04076   0.07719   0.08271
 Alpha virt. eigenvalues --    0.08806   0.09460   0.09610   0.09803   0.10305

 Mulliken charges:
               1
     1  C   -0.329635
     2  C   -0.051938
     3  C   -0.309790
     4  C   -0.029061
     5  C    0.226737
     6  S    0.050802
     7  C    0.004810
     8  C    0.164939
     9  N   -0.000041
    10  C   -0.194320
    11  C   -0.174799
    12  C   -0.149467
    13  C   -0.266324
    14  C   -0.179315
    15  C   -0.393557
    16  C   -0.332083
    17  C    0.203859
    18  S    0.080541
    19  C   -0.009188
    20  C    0.175948
    21  N    0.010278
    22  C   -0.190055
    23  C   -0.170955
    24  C   -0.152776
    25  C   -0.266881
    26  C   -0.224426
    27  C   -0.394889
    28  H    0.182241
    29  H    0.168651
    30  H    0.154666
    31  H    0.184065
    32  H    0.181002
    33  H    0.173710
    34  H    0.174969
    35  H    0.189433
    36  H    0.168400
    37  H    0.168744
    38  H    0.148210
    39  H    0.149203
    40  H    0.147187
    41  H    0.172233
    42  H    0.181474
    43  H    0.174440
    44  H    0.175689
    45  H    0.194123
    46  H    0.181802
    47  H    0.175945
    48  H    0.154268
    49  H    0.148904
    50  H    0.152224
 Sum of Mulliken charges =   1.00000

 Dipole moment (field-independent basis, Debye):
    X=             -0.8520    Y=             -0.2205    Z=             -1.0398  Tot=              1.3622
 Quadrupole moment (field-independent basis, Debye-Ang):
   XX=            -15.9693   YY=           -137.5693   ZZ=           -180.8980
   XY=            -21.0903   XZ=              1.1804   YZ=             -0.8436

 Normal termination of Gaussian 16 at Sat Nov  4 05:22:41 2023.
