 Gaussian 16, Revision C.02,
 Gaussian 16:  ES64L-G16RevC.02  7-Dec-2021

 ----------------------------------------------------------------
 # td=(nstates=150) CAM-b3lyp/def2TZVP scrf(smd, solvent=ethanol)
 ----------------------------------------------------------------

 ---
 A-1
 ---
 Symbolic Z-matrix:
 Charge =  1 Multiplicity = 1

                         Standard orientation:
 ---------------------------------------------------------------------
 Center     Atomic      Atomic             Coordinates (Angstroms)
 Number     Number       Type             X           Y           Z
 ---------------------------------------------------------------------
      1          6           0       -1.259214    0.216698   -0.039367
      2          6           0        0.000003    0.828935   -0.000122
      3          6           0        1.259209    0.216684    0.039249
      4          7           0        2.433464    0.904848    0.145998
      5         16           0       -1.557561   -1.512152    0.053882
      6          6           0       -3.297665   -1.258824   -0.027283
      7          6           0       -3.589904    0.108866   -0.118299
      8          7           0       -2.433474    0.904863   -0.146106
      9         16           0        1.557549   -1.512171   -0.053923
     10          6           0        3.297657   -1.258850    0.027304
     11          6           0        3.589900    0.108842    0.118251
     12          6           0       -4.301571   -2.224422   -0.003624
     13          6           0       -5.624645   -1.792125   -0.066975
     14          6           0       -5.925643   -0.425687   -0.149009
     15          6           0       -4.920394    0.538274   -0.174272
     16          6           0        4.301563   -2.224450    0.003718
     17          6           0        5.624635   -1.792149    0.067066
     18          6           0        5.925635   -0.425707    0.149021
     19          6           0        4.920384    0.538258    0.174213
     20          6           0       -2.510348    2.373529   -0.257226
     21          6           0       -2.566433    3.073786    1.101522
     22          6           0        2.510339    2.373497    0.257299
     23          6           0        2.566508    3.073929   -1.101357
     24          1           0        0.000014    1.909040   -0.000214
     25          1           0       -4.060576   -3.280313    0.063971
     26          1           0       -6.427238   -2.522132   -0.049094
     27          1           0       -6.962056   -0.106514   -0.191342
     28          1           0       -5.176748    1.590213   -0.228130
     29          1           0        4.060566   -3.280345   -0.063815
     30          1           0        6.427230   -2.522156    0.049231
     31          1           0        6.962048   -0.106532    0.191339
     32          1           0        5.176733    1.590201    0.228019
     33          1           0       -1.657488    2.708489   -0.852128
     34          1           0       -3.398115    2.597174   -0.852215
     35          1           0       -3.441185    2.752064    1.674572
     36          1           0       -1.673838    2.863356    1.699082
     37          1           0       -2.634230    4.156364    0.954302
     38          1           0        1.657436    2.708379    0.852183
     39          1           0        3.398074    2.597059    0.852370
     40          1           0        3.441334    2.752344   -1.674368
     41          1           0        1.673988    2.863510   -1.699033
     42          1           0        2.634214    4.156493   -0.953990
 ---------------------------------------------------------------------

 SCF Done:  E(RCAM-B3LYP) =  -1641.11793553     A.U. after   13 cycles

 Excitation energies and oscillator strengths:

 Excited State   1:      Singlet-A      3.3226 eV  373.16 nm  f=1.2294  <S**2>=0.000
      89 -> 90         0.69512
 This state for optimization and/or second-order correction.
 Total Energy, E(TD-HF/TD-DFT) =  -1640.99583302
 Copying the excited state density for this state as the 1-particle RhoCI density.

 Excited State   2:      Singlet-A      4.3530 eV  284.83 nm  f=0.0011  <S**2>=0.000
      87 -> 91        -0.13844
      89 -> 91         0.66813

 Excited State   3:      Singlet-A      4.6538 eV  266.42 nm  f=0.0232  <S**2>=0.000
      86 -> 90         0.14340
      86 -> 93         0.15336
      87 -> 94         0.13282
      88 -> 90         0.52304
      89 -> 92        -0.36736

 Excited State   4:      Singlet-A      4.8438 eV  255.96 nm  f=0.0074  <S**2>=0.000
      86 -> 92         0.20508
      87 -> 90         0.50319
      88 -> 94         0.16394
      89 -> 93        -0.37871

 Excited State   5:      Singlet-A      5.0069 eV  247.63 nm  f=0.0217  <S**2>=0.000
      86 -> 90        -0.33314
      86 -> 93        -0.10926
      87 -> 92         0.15206
      88 -> 90         0.35681
      88 -> 93         0.11403
      88 -> 95        -0.12866
      89 -> 92         0.30332
      89 -> 94         0.25810

 Excited State   6:      Singlet-A      5.1382 eV  241.30 nm  f=0.0502  <S**2>=0.000
      86 -> 92        -0.16328
      86 -> 94        -0.11683
      87 -> 90         0.41868
      87 -> 95        -0.12935
      88 -> 92         0.14893
      89 -> 93         0.39587
      89 -> 95         0.19605

 Excited State   7:      Singlet-A      5.1830 eV  239.22 nm  f=0.1284  <S**2>=0.000
      86 -> 90         0.48890
      86 -> 93        -0.12672
      88 -> 90         0.19109
      89 -> 92         0.40735
      89 -> 94        -0.12440

 Excited State   8:      Singlet-A      5.3546 eV  231.55 nm  f=0.0017  <S**2>=0.000
      84 -> 91        -0.14954
      86 -> 91         0.23650
      87 -> 96         0.18118
      88 -> 91         0.45660
      89 -> 96        -0.37049

 Excited State   9:      Singlet-A      5.5130 eV  224.89 nm  f=0.0842  <S**2>=0.000
      86 -> 90         0.30311
      86 -> 95        -0.16312
      87 -> 92         0.11701
      88 -> 90        -0.18801
      88 -> 93         0.10706
      89 -> 92        -0.11420
      89 -> 94         0.53695

 Excited State  10:      Singlet-A      5.6006 eV  221.38 nm  f=0.2359  <S**2>=0.000
      85 -> 90        -0.10112
      86 -> 94        -0.17554
      87 -> 90        -0.19028
      87 -> 93         0.22387
      88 -> 92         0.24675
      89 -> 93        -0.26324
      89 -> 95         0.46987

 Excited State  11:      Singlet-A      5.8549 eV  211.76 nm  f=0.0004  <S**2>=0.000
      84 -> 91        -0.11569
      86 -> 91        -0.19355
      88 -> 91         0.41751
      89 -> 96         0.49754

 Excited State  12:      Singlet-A      5.8741 eV  211.07 nm  f=0.0161  <S**2>=0.000
      83 -> 91         0.16823
      87 -> 91         0.58390
      88 -> 96         0.26045
      89 -> 91         0.16323

 Excited State  13:      Singlet-A      5.9935 eV  206.86 nm  f=0.6372  <S**2>=0.000
      85 -> 90         0.27994
      87 -> 93        -0.23926
      87 -> 95         0.12865
      88 -> 92        -0.30857
      88 -> 94         0.15972
      89 -> 93         0.16796
      89 -> 95         0.41566

 Excited State  14:      Singlet-A      6.1137 eV  202.80 nm  f=0.3587  <S**2>=0.000
      87 -> 92         0.43443
      88 -> 93         0.42024
      89 -> 92        -0.11433
      89 -> 94        -0.26588
      89 -> 98         0.14041

 Excited State  15:      Singlet-A      6.2090 eV  199.69 nm  f=0.0102  <S**2>=0.000
      83 -> 90        -0.10327
      85 -> 90         0.32887
      86 -> 92         0.11249
      87 -> 93         0.25213
      87 -> 95         0.24214
      88 -> 92         0.33199
      88 -> 94         0.27207
      89 -> 93         0.16756

 Excited State  16:      Singlet-A      6.2439 eV  198.57 nm  f=0.0001  <S**2>=0.000
      84 -> 90         0.20089
      85 -> 92         0.15565
      86 -> 93         0.17631
      87 -> 94         0.38752
      88 -> 93         0.11936
      88 -> 95         0.38351
      89 -> 92         0.21953
      89 -> 94         0.11259

 Excited State  17:      Singlet-A      6.3799 eV  194.33 nm  f=0.1504  <S**2>=0.000
      83 -> 90         0.10776
      85 -> 90         0.45646
      85 -> 93        -0.11271
      86 -> 92        -0.11369
      87 -> 95        -0.20838
      88 -> 94        -0.24554
      89 -> 93        -0.12606
      89 -> 97        -0.30177

 Excited State  18:      Singlet-A      6.3930 eV  193.94 nm  f=0.0124  <S**2>=0.000
      86 -> 91         0.29780
      89 -> 96         0.13633
      89 -> 98         0.55255
      89 -> 99         0.13864

 Excited State  19:      Singlet-A      6.4314 eV  192.78 nm  f=0.0001  <S**2>=0.000
      85 -> 96         0.12658
      86 -> 91         0.50526
      89 -> 96         0.22950
      89 -> 98        -0.34592

 Excited State  20:      Singlet-A      6.4902 eV  191.03 nm  f=0.0776  <S**2>=0.000
      85 -> 90         0.22255
      87 -> 95        -0.12958
      88 -> 94        -0.16502
      89 -> 97         0.54031
      89 ->100        -0.22656

 Excited State  21:      Singlet-A      6.6550 eV  186.30 nm  f=0.0367  <S**2>=0.000
      84 -> 90         0.64288
      86 -> 93        -0.12086
      87 -> 94        -0.10137
      88 -> 90         0.10783
      88 -> 95        -0.10352

 Excited State  22:      Singlet-A      6.7330 eV  184.14 nm  f=0.0031  <S**2>=0.000
      83 -> 90         0.63698
      86 -> 92         0.14186
      87 -> 90        -0.11387

 Excited State  23:      Singlet-A      6.7845 eV  182.75 nm  f=0.0210  <S**2>=0.000
      83 -> 90         0.11240
      89 -> 97        -0.17510
      89 ->100        -0.42336
      89 ->101         0.46712

 Excited State  24:      Singlet-A      6.8606 eV  180.72 nm  f=0.7204  <S**2>=0.000
      83 -> 90        -0.10393
      85 -> 93         0.23051
      86 -> 92         0.51345
      87 -> 95        -0.17873
      88 -> 94        -0.25755
      89 -> 93         0.16411

 Excited State  25:      Singlet-A      6.9943 eV  177.26 nm  f=0.0517  <S**2>=0.000
      85 -> 92         0.27731
      86 -> 93         0.50237
      87 -> 94        -0.22710
      88 -> 95        -0.24904
      89 -> 92         0.11596

 Excited State  26:      Singlet-A      7.0409 eV  176.09 nm  f=0.0011  <S**2>=0.000
      72 -> 90         0.11824
      77 -> 90        -0.11227
      82 -> 90         0.65383

 Excited State  27:      Singlet-A      7.1412 eV  173.62 nm  f=0.0000  <S**2>=0.000
      83 -> 91        -0.10655
      85 -> 91         0.52273
      86 -> 96         0.34905
      88 -> 96         0.11110
      89 ->100        -0.10692
      89 ->101        -0.13495

 Excited State  28:      Singlet-A      7.2321 eV  171.44 nm  f=0.0265  <S**2>=0.000
      84 -> 92        -0.13249
      85 -> 95         0.26357
      86 -> 94         0.53015
      88 -> 92         0.13575
      89 -> 95         0.16505
      89 ->100         0.10843
      89 ->101         0.10236
      89 ->104         0.10654

 Excited State  29:      Singlet-A      7.2749 eV  170.43 nm  f=0.0021  <S**2>=0.000
      86 -> 95        -0.10786
      86 -> 97         0.11669
      86 ->100         0.11174
      89 -> 98        -0.10103
      89 -> 99         0.52396
      89 ->102         0.17312
      89 ->103         0.16347
      89 ->106         0.23228

 Excited State  30:      Singlet-A      7.2911 eV  170.05 nm  f=0.0077  <S**2>=0.000
      86 -> 94        -0.18516
      86 -> 96         0.14701
      88 -> 96         0.15551
      89 -> 97         0.18395
      89 ->100         0.27806
      89 ->101         0.38387
      89 ->104         0.26298

 Excited State  31:      Singlet-A      7.3267 eV  169.22 nm  f=0.1554  <S**2>=0.000
      76 -> 90         0.17341
      81 -> 90         0.13460
      83 -> 92         0.12503
      84 -> 93        -0.12330
      85 -> 94         0.28321
      86 -> 95         0.46998
      89 -> 94         0.12671
      89 -> 99         0.12652

 Excited State  32:      Singlet-A      7.3703 eV  168.22 nm  f=0.0165  <S**2>=0.000
      69 -> 90        -0.15325
      71 -> 90        -0.21330
      76 -> 90         0.53396
      78 -> 90        -0.12792
      81 -> 90         0.12527
      84 -> 91         0.11549
      85 -> 94        -0.10781
      86 -> 95        -0.18757

 Excited State  33:      Singlet-A      7.4052 eV  167.43 nm  f=0.0016  <S**2>=0.000
      83 -> 91         0.34349
      84 -> 96        -0.25964
      87 -> 91        -0.29372
      87 ->100        -0.11567
      88 -> 96         0.32279
      89 ->100        -0.17048
      89 ->101        -0.12111

 Excited State  34:      Singlet-A      7.4378 eV  166.69 nm  f=0.0015  <S**2>=0.000
      83 -> 96        -0.22259
      84 -> 91         0.56559
      84 -> 93        -0.10557
      88 -> 91         0.20981
      88 ->100         0.11192

 Excited State  35:      Singlet-A      7.5809 eV  163.55 nm  f=0.0132  <S**2>=0.000
      84 -> 93         0.12214
      87 -> 92         0.47978
      88 -> 93        -0.46130

 Excited State  36:      Singlet-A      7.5902 eV  163.35 nm  f=0.0625  <S**2>=0.000
      82 -> 91        -0.10003
      84 -> 92         0.19985
      86 -> 94         0.13488
      87 -> 93         0.49811
      88 -> 92        -0.37435

 Excited State  37:      Singlet-A      7.6450 eV  162.18 nm  f=0.0005  <S**2>=0.000
      68 -> 90        -0.11263
      76 -> 90         0.12283
      78 -> 90         0.15578
      79 -> 90         0.44266
      81 -> 90        -0.32582
      82 -> 92        -0.13830
      82 -> 94        -0.19254

 Excited State  38:      Singlet-A      7.6930 eV  161.16 nm  f=0.0048  <S**2>=0.000
      81 -> 90        -0.13895
      86 ->100        -0.11938
      86 ->101        -0.12022
      87 -> 96         0.29091
      88 -> 97         0.11204
      89 -> 96         0.10330
      89 -> 99        -0.23740
      89 ->102         0.30667
      89 ->103         0.25492
      89 ->106         0.11363

 Excited State  39:      Singlet-A      7.7146 eV  160.71 nm  f=0.0024  <S**2>=0.000
      83 -> 91        -0.41743
      85 -> 91        -0.11534
      86 -> 96        -0.11300
      88 -> 96         0.41986
      88 -> 98         0.10907
      89 ->104        -0.10416

 Excited State  40:      Singlet-A      7.7289 eV  160.42 nm  f=0.0003  <S**2>=0.000
      87 -> 96         0.44163
      88 -> 91        -0.11436
      88 -> 97         0.10636
      88 ->100        -0.13791
      89 -> 99         0.14300
      89 ->102        -0.25775
      89 ->103        -0.21451

 Excited State  41:      Singlet-A      7.7882 eV  159.19 nm  f=0.0047  <S**2>=0.000
      77 -> 90        -0.12469
      80 -> 90         0.40436
      82 -> 93        -0.10132
      84 -> 94         0.10073
      87 -> 95         0.24011
      88 -> 94        -0.23711
      88 -> 98         0.30001

 Excited State  42:      Singlet-A      7.7935 eV  159.09 nm  f=0.0043  <S**2>=0.000
      78 -> 90         0.25602
      79 -> 90         0.17824
      81 -> 90         0.52339
      82 -> 92        -0.11204
      87 -> 96         0.13829

 Excited State  43:      Singlet-A      7.8010 eV  158.93 nm  f=0.0030  <S**2>=0.000
      77 -> 90        -0.11562
      80 -> 90         0.41202
      82 -> 93        -0.10021
      83 -> 91        -0.13850
      87 -> 95        -0.21465
      88 -> 94         0.21047
      88 -> 96         0.16477
      88 -> 98        -0.28006

 Excited State  44:      Singlet-A      7.8328 eV  158.29 nm  f=0.0172  <S**2>=0.000
      84 -> 92        -0.10256
      86 -> 99        -0.16546
      87 -> 95         0.10047
      89 ->100        -0.23020
      89 ->101        -0.15274
      89 ->104         0.43845
      89 ->105         0.25339

 Excited State  45:      Singlet-A      7.8413 eV  158.12 nm  f=0.0260  <S**2>=0.000
      78 -> 90        -0.11413
      86 ->100        -0.11183
      87 -> 94         0.15820
      87 -> 98        -0.16425
      88 -> 95        -0.12311
      89 ->102         0.32305
      89 ->103        -0.31932
      89 ->106        -0.21281
      89 ->113         0.18497

 Excited State  46:      Singlet-A      7.8665 eV  157.61 nm  f=0.1123  <S**2>=0.000
      82 -> 91        -0.26234
      83 -> 93        -0.32879
      84 -> 92         0.39278
      86 -> 94         0.12021
      87 -> 93        -0.18878
      88 -> 92         0.16053
      89 ->104         0.11947

 Excited State  47:      Singlet-A      7.9028 eV  156.89 nm  f=0.0150  <S**2>=0.000
      78 -> 90        -0.21840
      83 -> 92         0.24792
      84 -> 93        -0.23035
      87 -> 94         0.21988
      87 -> 98        -0.11717
      87 -> 99        -0.10673
      88 -> 95        -0.19379
      89 -> 99        -0.11292
      89 ->106         0.28280
      89 ->113        -0.12203

 Excited State  48:      Singlet-A      7.9093 eV  156.76 nm  f=0.0132  <S**2>=0.000
      77 -> 90         0.37563
      77 -> 93         0.10501
      78 -> 92        -0.15572
      79 -> 92        -0.23294
      80 -> 90         0.32512
      82 -> 93         0.27335

 Excited State  49:      Singlet-A      7.9263 eV  156.42 nm  f=0.0562  <S**2>=0.000
      87 -> 94         0.29410
      87 -> 98        -0.16098
      88 -> 95        -0.26986
      88 -> 97        -0.10021
      89 ->102        -0.16636
      89 ->103         0.38718
      89 ->106        -0.18525

 Excited State  50:      Singlet-A      7.9467 eV  156.02 nm  f=0.2524  <S**2>=0.000
      83 -> 92         0.32359
      84 -> 93        -0.31556
      86 -> 95        -0.20421
      87 -> 94        -0.16651
      87 -> 98         0.10298
      88 -> 95         0.15300
      89 ->103         0.16490
      89 ->106        -0.20708

 Excited State  51:      Singlet-A      8.0001 eV  154.98 nm  f=0.0468  <S**2>=0.000
      75 -> 90         0.15732
      77 -> 92         0.13189
      78 -> 93        -0.16838
      79 -> 90         0.24025
      79 -> 93        -0.25648
      81 -> 90         0.11079
      82 -> 92         0.35045
      82 -> 94        -0.12781
      83 -> 92        -0.15077
      84 -> 93         0.12164
      87 -> 96        -0.10853
      89 ->106         0.11008

 Excited State  52:      Singlet-A      8.0409 eV  154.19 nm  f=0.0804  <S**2>=0.000
      76 -> 90         0.13527
      78 -> 90         0.45817
      79 -> 90        -0.24318
      79 -> 93        -0.10761
      82 -> 92         0.16058
      88 -> 97         0.12162
      89 ->103        -0.12714

 Excited State  53:      Singlet-A      8.0786 eV  153.47 nm  f=0.0243  <S**2>=0.000
      77 -> 90        -0.19245
      79 -> 92        -0.10492
      82 -> 93         0.14106
      86 -> 96         0.17693
      86 ->102        -0.14852
      87 -> 97        -0.25623
      87 ->101         0.10393
      87 ->104         0.11056
      88 -> 99         0.21091
      89 ->104        -0.18675
      89 ->105         0.26615

 Excited State  54:      Singlet-A      8.0813 eV  153.42 nm  f=0.0220  <S**2>=0.000
      77 -> 90         0.30931
      78 -> 92         0.14030
      79 -> 92         0.22355
      79 -> 94        -0.11821
      82 -> 91        -0.14051
      82 -> 93        -0.25979
      82 -> 95         0.13328
      87 -> 97        -0.13870
      88 -> 99         0.14193
      89 ->104        -0.11342
      89 ->105         0.16544

 Excited State  55:      Singlet-A      8.1039 eV  152.99 nm  f=0.0086  <S**2>=0.000
      87 -> 99        -0.22093
      87 ->102        -0.11587
      87 ->106        -0.10004
      88 -> 97         0.43354
      88 ->101        -0.21067
      88 ->104        -0.15366
      89 -> 99         0.10862
      89 ->103         0.11297
      89 ->106        -0.14786
      89 ->113         0.12516

 Excited State  56:      Singlet-A      8.1272 eV  152.55 nm  f=0.1374  <S**2>=0.000
      82 -> 91         0.24562
      82 -> 93        -0.10063
      83 -> 93        -0.11353
      83 -> 95        -0.17084
      84 -> 92         0.12840
      84 -> 94         0.21352
      85 -> 91         0.15028
      86 -> 96        -0.18896
      86 -> 98        -0.21390
      87 -> 95         0.14809
      87 ->100        -0.11032
      88 -> 94        -0.13430
      88 -> 98        -0.23812

 Excited State  57:      Singlet-A      8.1482 eV  152.16 nm  f=0.0009  <S**2>=0.000
      74 -> 92         0.15171
      74 -> 94         0.13413
      75 -> 90         0.49380
      75 -> 93         0.20796
      75 -> 95         0.11014
      77 -> 92         0.14883
      77 -> 94         0.16629
      79 -> 90        -0.13551
      82 -> 92        -0.16434

 Excited State  58:      Singlet-A      8.1644 eV  151.86 nm  f=0.0478  <S**2>=0.000
      77 -> 90         0.14487
      82 -> 91         0.12168
      83 -> 95        -0.10399
      84 -> 92         0.10529
      84 -> 94         0.12351
      85 -> 91        -0.26138
      86 -> 96         0.37236
      87 -> 97         0.10000
      87 ->100         0.17012
      88 -> 99        -0.18910

 Excited State  59:      Singlet-A      8.2223 eV  150.79 nm  f=0.0029  <S**2>=0.000
      85 -> 91         0.17548
      86 -> 96        -0.21355
      86 ->102        -0.15192
      87 -> 97         0.19960
      87 ->100         0.10498
      88 -> 99        -0.19736
      89 ->104        -0.15329
      89 ->105         0.43129

 Excited State  60:      Singlet-A      8.2323 eV  150.61 nm  f=0.0016  <S**2>=0.000
      72 -> 90         0.15831
      74 -> 90         0.36694
      74 -> 93         0.14403
      75 -> 92         0.24795
      75 -> 94         0.17619
      77 -> 93         0.16671
      80 -> 90        -0.11946
      82 -> 95        -0.11812
      83 -> 95         0.11966
      84 -> 94        -0.12386
      88 -> 99         0.11324

 Excited State  61:      Singlet-A      8.2574 eV  150.15 nm  f=0.0084  <S**2>=0.000
      83 -> 94        -0.31573
      84 -> 95         0.32441
      85 -> 92         0.25444
      86 -> 93        -0.20918
      87 -> 98         0.29718
      88 -> 95        -0.13855
      88 ->100         0.10069

 Excited State  62:      Singlet-A      8.2818 eV  149.71 nm  f=0.0039  <S**2>=0.000
      73 -> 90        -0.21568
      75 -> 92         0.10367
      83 -> 95        -0.18813
      84 -> 94         0.21732
      85 -> 93         0.26970
      85 -> 95         0.11372
      86 -> 92        -0.18873
      86 -> 94        -0.11542
      86 -> 98         0.25998
      87 -> 95        -0.16417

 Excited State  63:      Singlet-A      8.2945 eV  149.48 nm  f=0.0006  <S**2>=0.000
      85 -> 92        -0.14190
      86 ->104         0.11380
      87 -> 96         0.16013
      87 -> 99        -0.23802
      87 ->102         0.16526
      88 -> 91        -0.10782
      88 ->100         0.41373
      89 ->102         0.11839
      89 ->106        -0.19090

 Excited State  64:      Singlet-A      8.3030 eV  149.32 nm  f=0.1085  <S**2>=0.000
      73 -> 90         0.16293
      74 -> 90         0.11937
      82 -> 91         0.24943
      83 -> 93        -0.10777
      83 -> 95        -0.10481
      85 -> 93        -0.14319
      86 -> 92         0.10258
      87 -> 95        -0.29473
      88 -> 94         0.19618
      88 -> 98         0.36416

 Excited State  65:      Singlet-A      8.3336 eV  148.78 nm  f=0.0299  <S**2>=0.000
      78 -> 93        -0.11027
      83 -> 94         0.13255
      84 -> 95        -0.14528
      85 -> 92         0.43319
      86 -> 93        -0.23015
      87 -> 98        -0.26784
      88 -> 95         0.11419

 Excited State  66:      Singlet-A      8.3526 eV  148.44 nm  f=0.0241  <S**2>=0.000
      85 -> 93        -0.20462
      85 -> 95         0.10198
      86 -> 98         0.28614
      86 -> 99         0.10174
      87 -> 97         0.11346
      87 ->100        -0.24744
      87 ->101        -0.23342
      88 -> 99         0.15024
      88 ->102        -0.23485

 Excited State  67:      Singlet-A      8.3608 eV  148.29 nm  f=0.0141  <S**2>=0.000
      85 -> 92         0.11634
      85 -> 96         0.10531
      86 ->104        -0.11571
      87 -> 99        -0.15882
      87 ->102         0.15804

 The electronic state is 1-A.
 Alpha  occ. eigenvalues --  -88.98822 -88.98822 -14.47681 -14.47681 -10.37289
 Alpha  occ. eigenvalues --  -10.37288 -10.31932 -10.31932 -10.30547 -10.30546
 Alpha  occ. eigenvalues --  -10.29670 -10.29670 -10.27229 -10.27219 -10.27219
 Alpha  occ. eigenvalues --  -10.26845 -10.26845 -10.26367 -10.26367 -10.26075
 Alpha  occ. eigenvalues --  -10.26075 -10.24106 -10.24106  -8.06548  -8.06548
 Alpha  occ. eigenvalues --   -6.02941  -6.02940  -6.02550  -6.02550  -6.02157
 Alpha  occ. eigenvalues --   -6.02156  -1.10859  -1.10487  -0.96610  -0.96459
 Alpha  occ. eigenvalues --   -0.94493  -0.92293  -0.89105  -0.86110  -0.85713
 Alpha  occ. eigenvalues --   -0.84641  -0.83382  -0.82595  -0.80096  -0.74120
 Alpha  occ. eigenvalues --   -0.73955  -0.73682  -0.71077  -0.69131  -0.69072
 Alpha  occ. eigenvalues --   -0.66828  -0.64320  -0.60897  -0.60365  -0.60227
 Alpha  occ. eigenvalues --   -0.58117  -0.57301  -0.55652  -0.55287  -0.54654
 Alpha  occ. eigenvalues --   -0.53471  -0.53200  -0.53016  -0.52852  -0.50765
 Alpha  occ. eigenvalues --   -0.50463  -0.50244  -0.48959  -0.47650  -0.47465
 Alpha  occ. eigenvalues --   -0.46580  -0.46101  -0.45490  -0.44852  -0.44204
 Alpha  occ. eigenvalues --   -0.43755  -0.43553  -0.42788  -0.42681  -0.42362
 Alpha  occ. eigenvalues --   -0.41978  -0.41050  -0.38921  -0.38273  -0.36332
 Alpha  occ. eigenvalues --   -0.32024  -0.31464  -0.30861  -0.25999
 Alpha virt. eigenvalues --   -0.04713   0.00751   0.00894   0.01583   0.02413
 Alpha virt. eigenvalues --    0.03299   0.05812   0.06859   0.06983   0.09115
 Alpha virt. eigenvalues --    0.09398   0.09858   0.10773   0.10937   0.11031

 Mulliken charges:
               1
     1  C    0.146449
     2  C   -0.313626
     3  C    0.146429
     4  N    0.002496
     5  S    0.065544
     6  C    0.007513
     7  C    0.159152
     8  N    0.002488
     9  S    0.065545
    10  C    0.007512
    11  C    0.159151
    12  C   -0.199432
    13  C   -0.168763
    14  C   -0.148926
    15  C   -0.257346
    16  C   -0.199427
    17  C   -0.168762
    18  C   -0.148929
    19  C   -0.257346
    20  C   -0.186221
    21  C   -0.395313
    22  C   -0.186232
    23  C   -0.395318
    24  H    0.219744
    25  H    0.183256
    26  H    0.175284
    27  H    0.176597
    28  H    0.191170
    29  H    0.183256
    30  H    0.175284
    31  H    0.176598
    32  H    0.191175
    33  H    0.171200
    34  H    0.173850
    35  H    0.149545
    36  H    0.149704
    37  H    0.151199
    38  H    0.171202
    39  H    0.173852
    40  H    0.149544
    41  H    0.149705
    42  H    0.151198
 Sum of Mulliken charges =   1.00000

 Dipole moment (field-independent basis, Debye):
    X=              0.0001    Y=              5.1790    Z=              0.0001  Tot=              5.1790
 Quadrupole moment (field-independent basis, Debye-Ang):
   XX=            -70.5276   YY=           -110.2832   ZZ=           -154.7616
   XY=             -0.0003   XZ=              2.2460   YZ=             -0.0005

 Normal termination of Gaussian 16 at Sat Nov  4 04:11:00 2023.
