 Gaussian 16, Revision C.02,
 Gaussian 16:  ES64L-G16RevC.02  7-Dec-2021

 ----------------------------------------------------------------
 # td=(nstates=150) CAM-b3lyp/def2TZVP scrf(smd, solvent=ethanol)
 ----------------------------------------------------------------

 ---
 A-4
 ---
 Symbolic Z-matrix:
 Charge =  1 Multiplicity = 1

                         Standard orientation:
 ---------------------------------------------------------------------
 Center     Atomic      Atomic             Coordinates (Angstroms)
 Number     Number       Type             X           Y           Z
 ---------------------------------------------------------------------
      1          6           0       -3.663712   -1.051948   -0.111557
      2          6           0       -2.389638   -0.479979   -0.083458
      3          6           0       -1.194967   -1.195004   -0.064041
      4          6           0        0.058349   -0.578322   -0.035613
      5          6           0       -4.855344   -0.323764   -0.124892
      6         16           0       -4.926662    1.436711   -0.060618
      7          6           0       -6.688233    1.402029   -0.083292
      8          6           0       -7.154955    0.079357   -0.139452
      9          7           0       -6.111858   -0.857268   -0.183590
     10          6           0       -7.565153    2.482703   -0.048916
     11          6           0       -8.934956    2.220220   -0.065794
     12          6           0       -9.407072    0.902760   -0.113224
     13          6           0       -8.529361   -0.179533   -0.148820
     14          6           0       -6.366284   -2.306872   -0.248314
     15          6           0       -6.467137   -2.955883    1.133259
     16          6           0        1.282162   -1.246091   -0.016052
     17          6           0        2.511127   -0.582889    0.011938
     18          6           0        3.741215   -1.244345   -0.008435
     19          6           0        5.052439   -0.749020    0.008808
     20         16           0        6.362590   -1.866987   -0.365292
     21          6           0        7.562983   -0.600806   -0.165520
     22          6           0        6.941017    0.612357    0.169846
     23          7           0        5.544832    0.495298    0.283261
     24          6           0        8.946272   -0.695535   -0.302110
     25          6           0        9.708364    0.454142   -0.100703
     26          6           0        9.092982    1.668657    0.228770
     27          6           0        7.709445    1.764545    0.366500
     28          6           0        4.732809    1.623027    0.770139
     29          6           0        4.282282    2.569892   -0.344236
     30          1           0       -3.731831   -2.134826   -0.113428
     31          1           0       -2.310249    0.607987   -0.076294
     32          1           0       -1.237617   -2.283434   -0.072611
     33          1           0        0.079156    0.512977   -0.027655
     34          1           0       -7.192939    3.501353   -0.008437
     35          1           0       -9.638205    3.046285   -0.038434
     36          1           0      -10.476042    0.714855   -0.119701
     37          1           0       -8.914544   -1.192671   -0.174894
     38          1           0       -7.289207   -2.442036   -0.816617
     39          1           0       -5.570728   -2.757498   -0.845647
     40          1           0       -6.666359   -4.026758    1.023381
     41          1           0       -5.536643   -2.835556    1.696522
     42          1           0       -7.280055   -2.514652    1.717995
     43          1           0        1.279871   -2.335280   -0.024232
     44          1           0        2.472390    0.502280    0.013643
     45          1           0        3.691082   -2.326769   -0.105404
     46          1           0        9.416627   -1.639291   -0.558710
     47          1           0       10.787594    0.405440   -0.203502
     48          1           0        9.700309    2.555856    0.377290
     49          1           0        7.251286    2.716142    0.611187
     50          1           0        3.887111    1.202637    1.316886
     51          1           0        5.342782    2.154926    1.505154
     52          1           0        3.668719    2.054906   -1.089954
     53          1           0        3.692500    3.387191    0.083941
     54          1           0        5.141488    3.005946   -0.862588
 ---------------------------------------------------------------------

 SCF Done:  E(RCAM-B3LYP) =  -1873.27579902     A.U. after   17 cycles

 Excitation energies and oscillator strengths:

 Excited State   1:      Singlet-A      2.0235 eV  612.71 nm  f=2.8208  <S**2>=0.000
     109 -> 112        0.12824
     110 -> 111        0.69156
 This state for optimization and/or second-order correction.
 Total Energy, E(TD-HF/TD-DFT) =  -1873.20143509
 Copying the excited state density for this state as the 1-particle RhoCI density.

 Excited State   2:      Singlet-A      3.7199 eV  333.30 nm  f=0.0639  <S**2>=0.000
     109 -> 111        0.64037
     110 -> 112        0.25491

 Excited State   3:      Singlet-A      4.1005 eV  302.36 nm  f=0.0598  <S**2>=0.000
     109 -> 111       -0.25532
     110 -> 112        0.63922

 Excited State   4:      Singlet-A      4.4446 eV  278.95 nm  f=0.0111  <S**2>=0.000
     108 -> 111        0.51802
     108 -> 112        0.18851
     109 -> 114        0.15061
     110 -> 113        0.24080
     110 -> 114        0.22510

 Excited State   5:      Singlet-A      4.4761 eV  276.99 nm  f=0.0121  <S**2>=0.000
     107 -> 111        0.55411
     107 -> 112       -0.18965
     109 -> 113        0.14156
     110 -> 113       -0.18705
     110 -> 114        0.23109

 Excited State   6:      Singlet-A      4.5796 eV  270.73 nm  f=0.0030  <S**2>=0.000
     107 -> 116       -0.13595
     109 -> 116       -0.27716
     110 -> 116        0.60204

 Excited State   7:      Singlet-A      4.6389 eV  267.27 nm  f=0.0018  <S**2>=0.000
     108 -> 118        0.14180
     109 -> 118        0.27300
     110 -> 118        0.61172

 Excited State   8:      Singlet-A      4.7069 eV  263.41 nm  f=0.1136  <S**2>=0.000
     108 -> 111       -0.37246
     109 -> 113        0.13395
     109 -> 114        0.15582
     110 -> 113        0.31435
     110 -> 114        0.39609

 Excited State   9:      Singlet-A      4.7396 eV  261.59 nm  f=0.0349  <S**2>=0.000
     106 -> 111        0.37536
     107 -> 111       -0.28491
     109 -> 112       -0.13051
     109 -> 113        0.11960
     110 -> 113       -0.28738
     110 -> 114        0.23696
     110 -> 115       -0.16896

 Excited State  10:      Singlet-A      4.7919 eV  258.74 nm  f=0.0443  <S**2>=0.000
     106 -> 111        0.47508
     107 -> 111        0.19202
     109 -> 112       -0.11319
     109 -> 113       -0.10658
     109 -> 114        0.11370
     110 -> 113        0.31324
     110 -> 114       -0.21235
     110 -> 115       -0.11930

 Excited State  11:      Singlet-A      5.0335 eV  246.32 nm  f=0.0368  <S**2>=0.000
     106 -> 111        0.25725
     109 -> 112        0.10528
     109 -> 117        0.16302
     110 -> 115        0.56850

 Excited State  12:      Singlet-A      5.1614 eV  240.21 nm  f=0.0150  <S**2>=0.000
     105 -> 111        0.13700
     108 -> 114       -0.13015
     109 -> 115        0.21234
     110 -> 114       -0.13531
     110 -> 117        0.55804

 Excited State  13:      Singlet-A      5.4822 eV  226.16 nm  f=0.0012  <S**2>=0.000
     105 -> 111        0.58830
     106 -> 112       -0.13916
     110 -> 117       -0.23653

 Excited State  14:      Singlet-A      5.6494 eV  219.47 nm  f=0.0597  <S**2>=0.000
     106 -> 111        0.13407
     109 -> 112        0.55707
     109 -> 117       -0.10748
     110 -> 111       -0.12907
     110 -> 115       -0.20006
     110 -> 119       -0.13233

 Excited State  15:      Singlet-A      5.7243 eV  216.59 nm  f=0.1332  <S**2>=0.000
     106 -> 113       -0.12028
     107 -> 113        0.16529
     107 -> 114       -0.14999
     107 -> 115       -0.10596
     108 -> 113       -0.13127
     108 -> 114       -0.17498
     108 -> 115        0.10200
     108 -> 117        0.11770
     109 -> 114        0.10211
     109 -> 117        0.12429
     110 -> 113       -0.19457
     110 -> 119        0.43538

 Excited State  16:      Singlet-A      5.8466 eV  212.06 nm  f=0.0674  <S**2>=0.000
     105 -> 111        0.27032
     105 -> 113       -0.13282
     106 -> 114        0.19958
     107 -> 113        0.18901
     107 -> 114       -0.15664
     107 -> 115       -0.16412
     108 -> 113        0.11467
     108 -> 114        0.16917
     108 -> 115       -0.13527
     108 -> 117       -0.16412
     109 -> 113       -0.18107
     110 -> 114        0.22719
     110 -> 117        0.18944

 Excited State  17:      Singlet-A      5.8860 eV  210.64 nm  f=0.0602  <S**2>=0.000
     106 -> 113        0.14690
     107 -> 115        0.13512
     107 -> 116        0.11159
     108 -> 117       -0.11483
     109 -> 112        0.23505
     109 -> 114       -0.16613
     110 -> 113        0.15931
     110 -> 119        0.41704

 Excited State  18:      Singlet-A      5.9621 eV  207.95 nm  f=0.0007  <S**2>=0.000
     103 -> 116        0.17077
     107 -> 116        0.53544
     110 -> 116        0.20353
     110 -> 119       -0.13988
     110 -> 120       -0.12085
     110 -> 122       -0.12379

 Excited State  19:      Singlet-A      6.0032 eV  206.53 nm  f=0.0012  <S**2>=0.000
     104 -> 118        0.16512
     107 -> 116        0.18440
     108 -> 118        0.51109
     109 -> 118        0.12532
     110 -> 118       -0.21325
     110 -> 120        0.15997

 Excited State  20:      Singlet-A      6.0247 eV  205.79 nm  f=0.0908  <S**2>=0.000
     106 -> 114       -0.13327
     108 -> 112        0.17310
     108 -> 113        0.33145
     108 -> 114        0.38197
     108 -> 115        0.11304
     108 -> 117        0.16092
     109 -> 113        0.14420
     110 -> 114       -0.10662
     110 -> 117        0.12333
     110 -> 119        0.10652

 Excited State  21:      Singlet-A      6.0443 eV  205.13 nm  f=0.1222  <S**2>=0.000
     106 -> 113        0.13606
     107 -> 112       -0.21798
     107 -> 113        0.36190
     107 -> 114       -0.26466
     107 -> 115        0.22902
     107 -> 117       -0.13268
     109 -> 113        0.11193
     109 -> 114       -0.13718
     110 -> 113        0.10938
     110 -> 119       -0.14316

 Excited State  22:      Singlet-A      6.1440 eV  201.80 nm  f=0.0163  <S**2>=0.000
     107 -> 116        0.12499
     108 -> 118       -0.26801
     110 -> 120        0.46444
     110 -> 121       -0.16521
     110 -> 122        0.25745
     110 -> 125        0.11365

 Excited State  23:      Singlet-A      6.1923 eV  200.22 nm  f=0.0095  <S**2>=0.000
     102 -> 111       -0.11458
     103 -> 111       -0.19866
     104 -> 111       -0.12468
     110 -> 120       -0.17496
     110 -> 121       -0.14583
     110 -> 122        0.25762
     110 -> 123        0.42443
     110 -> 125        0.23771

 Excited State  24:      Singlet-A      6.2426 eV  198.61 nm  f=0.0085  <S**2>=0.000
     103 -> 111       -0.24046
     103 -> 112        0.12387
     104 -> 111        0.28821
     109 -> 119        0.10814
     110 -> 121        0.29330
     110 -> 122        0.34960
     110 -> 124       -0.13053
     110 -> 125       -0.16393

 Excited State  25:      Singlet-A      6.2835 eV  197.32 nm  f=0.0205  <S**2>=0.000
     102 -> 111        0.15132
     103 -> 111        0.37327
     104 -> 111        0.40034
     104 -> 112        0.17157
     110 -> 123        0.19486
     110 -> 125        0.13621

 Excited State  26:      Singlet-A      6.2929 eV  197.02 nm  f=0.0085  <S**2>=0.000
     103 -> 111        0.36449
     103 -> 112       -0.15038
     104 -> 111       -0.29695
     110 -> 121        0.28282
     110 -> 122        0.21770
     110 -> 124       -0.20426

 Excited State  27:      Singlet-A      6.3673 eV  194.72 nm  f=0.0424  <S**2>=0.000
      95 -> 111        0.10650
      96 -> 111       -0.18241
      97 -> 111       -0.14929
      99 -> 111        0.14681
     101 -> 111       -0.14836
     102 -> 111        0.48051
     104 -> 111       -0.15966
     110 -> 125       -0.12568

 Excited State  28:      Singlet-A      6.3701 eV  194.63 nm  f=0.0099  <S**2>=0.000
      95 -> 111       -0.13227
      96 -> 111        0.27813
      97 -> 111        0.19131
      99 -> 111       -0.13337
     101 -> 111        0.23618
     102 -> 111        0.10923
     110 -> 120       -0.12271
     110 -> 121       -0.11050
     110 -> 122        0.13333
     110 -> 124        0.26047
     110 -> 125       -0.27839

 Excited State  29:      Singlet-A      6.3926 eV  193.95 nm  f=0.0138  <S**2>=0.000
      96 -> 111        0.21479
      97 -> 111        0.13956
     101 -> 111        0.17845
     102 -> 111        0.34533
     103 -> 111       -0.14285
     110 -> 120        0.11613
     110 -> 122       -0.12545
     110 -> 124       -0.20273
     110 -> 125        0.23467

 Excited State  30:      Singlet-A      6.4335 eV  192.72 nm  f=0.0128  <S**2>=0.000
     106 -> 116        0.14599
     107 -> 116       -0.12274
     109 -> 116        0.15462
     110 -> 120        0.21259
     110 -> 121        0.18569
     110 -> 122       -0.11118
     110 -> 123        0.32240
     110 -> 124        0.19180
     110 -> 125       -0.18763
     110 -> 126       -0.20083

 Excited State  31:      Singlet-A      6.4927 eV  190.96 nm  f=0.3600  <S**2>=0.000
     106 -> 114        0.18997
     108 -> 112        0.33087
     108 -> 115        0.22085
     108 -> 117        0.22150
     109 -> 113       -0.29518
     109 -> 114       -0.23689
     109 -> 118       -0.11056
     110 -> 114        0.11014

 Excited State  32:      Singlet-A      6.5037 eV  190.64 nm  f=0.2850  <S**2>=0.000
     106 -> 113       -0.15060
     106 -> 116       -0.17242
     107 -> 112       -0.22232
     107 -> 115        0.19689
     107 -> 116        0.10576
     109 -> 113       -0.14894
     109 -> 114        0.22462
     109 -> 116       -0.20570
     110 -> 121        0.20881
     110 -> 123        0.11259
     110 -> 124        0.18968
     110 -> 128       -0.14974

 Excited State  33:      Singlet-A      6.5198 eV  190.17 nm  f=0.2551  <S**2>=0.000
     105 -> 116        0.11316
     106 -> 113       -0.11901
     106 -> 116        0.24597
     107 -> 112       -0.21747
     107 -> 115        0.21722
     107 -> 116       -0.10685
     109 -> 113       -0.20653
     109 -> 114        0.15421
     109 -> 116        0.29156
     110 -> 116        0.12141
     110 -> 125       -0.12374

 Excited State  34:      Singlet-A      6.5362 eV  189.69 nm  f=0.0405  <S**2>=0.000
      95 -> 111        0.10473
     105 -> 118        0.12055
     106 -> 118       -0.28844
     108 -> 118       -0.18416
     109 -> 116        0.10685
     109 -> 118        0.38064
     110 -> 118       -0.13351
     110 -> 121        0.15798
     110 -> 125        0.16347
     110 -> 128       -0.11441

 Excited State  35:      Singlet-A      6.5836 eV  188.32 nm  f=0.0064  <S**2>=0.000
      90 -> 111        0.13843
      91 -> 111       -0.12854
      93 -> 111       -0.13455
      95 -> 111        0.34213
      97 -> 111       -0.13883
      98 -> 111       -0.24339
     101 -> 111        0.24740
     101 -> 112        0.10241
     106 -> 118        0.13346
     109 -> 118       -0.18692

 Excited State  36:      Singlet-A      6.5961 eV  187.97 nm  f=0.0099  <S**2>=0.000
      95 -> 111        0.15291
      98 -> 111       -0.11576
     101 -> 111        0.11044
     106 -> 116       -0.11965
     106 -> 118       -0.13098
     109 -> 116       -0.15188
     109 -> 118        0.20095
     110 -> 121       -0.15795
     110 -> 123        0.18431
     110 -> 124       -0.18453
     110 -> 125       -0.24255
     110 -> 126       -0.14449
     110 -> 128        0.24559

 Excited State  37:      Singlet-A      6.6491 eV  186.47 nm  f=0.0453  <S**2>=0.000
     103 -> 111        0.12120
     105 -> 115        0.12468
     106 -> 112       -0.33703
     106 -> 117       -0.16537
     107 -> 113        0.14247
     107 -> 114       -0.11377
     108 -> 114        0.10481
     109 -> 115        0.39767
     110 -> 117       -0.13653

 Excited State  38:      Singlet-A      6.7912 eV  182.57 nm  f=0.1210  <S**2>=0.000
     104 -> 111        0.13610
     106 -> 112       -0.10247
     106 -> 115       -0.21445
     107 -> 112       -0.11115
     108 -> 112       -0.11470
     108 -> 117        0.12966
     109 -> 114       -0.11258
     109 -> 117        0.31040
     110 -> 115       -0.12538
     110 -> 126        0.13416
     110 -> 127        0.25947

 Excited State  39:      Singlet-A      6.7996 eV  182.34 nm  f=0.0240  <S**2>=0.000
     104 -> 111       -0.10629
     106 -> 115        0.12670
     108 -> 112        0.14494
     108 -> 117       -0.14561
     109 -> 117       -0.20246
     110 -> 120        0.10854
     110 -> 126        0.22249
     110 -> 127        0.37383
     110 -> 128        0.16364
     110 -> 129        0.10193

 Excited State  40:      Singlet-A      6.8729 eV  180.40 nm  f=0.0840  <S**2>=0.000
     106 -> 112       -0.15888
     107 -> 112       -0.19663
     107 -> 115       -0.14110
     107 -> 117        0.13714
     108 -> 111       -0.10210
     108 -> 112        0.34540
     108 -> 115       -0.10904
     108 -> 117       -0.30961
     108 -> 119       -0.15576
     109 -> 113        0.11342
     109 -> 117        0.12866

 Excited State  41:      Singlet-A      6.9012 eV  179.66 nm  f=0.1833  <S**2>=0.000
     106 -> 115       -0.16072
     107 -> 111        0.11688
     107 -> 112        0.39590
     107 -> 115        0.20691
     107 -> 117       -0.23661
     107 -> 119        0.15578
     108 -> 112        0.16332
     108 -> 117       -0.12886
     109 -> 117        0.22471

 Excited State  42:      Singlet-A      6.9818 eV  177.58 nm  f=0.0113  <S**2>=0.000
      88 -> 111       -0.12613
      91 -> 111        0.10123
      92 -> 111       -0.15855
      93 -> 111        0.17091
      95 -> 111        0.14011
      98 -> 111        0.11345
     100 -> 111        0.16744
     101 -> 111        0.11683
     109 -> 126       -0.11125
     110 -> 126        0.27043
     110 -> 131        0.21112
     110 -> 132       -0.16974
     110 -> 133        0.10441

 Excited State  43:      Singlet-A      6.9859 eV  177.48 nm  f=0.0324  <S**2>=0.000
      90 -> 111        0.10073
      98 -> 111       -0.13746
      99 -> 111        0.17584
     102 -> 112       -0.12689
     106 -> 112        0.33774
     106 -> 117       -0.20816
     108 -> 112        0.12380
     109 -> 115        0.21174
     109 -> 117        0.11566
     109 -> 119        0.10840
     110 -> 126        0.16416

 Excited State  44:      Singlet-A      7.0225 eV  176.55 nm  f=0.0132  <S**2>=0.000
      88 -> 111       -0.13542
      90 -> 111       -0.12599
      91 -> 111        0.11710
      92 -> 111       -0.15036
      93 -> 111        0.16340
      95 -> 111        0.14003
      98 -> 111        0.11906
     101 -> 111        0.13921
     106 -> 112        0.25534
     106 -> 117       -0.14491
     109 -> 115        0.15914
     110 -> 126       -0.19477
     110 -> 131       -0.13839
     110 -> 132        0.13045

 Excited State  45:      Singlet-A      7.0809 eV  175.10 nm  f=0.0020  <S**2>=0.000
      86 -> 111        0.11937
      87 -> 111       -0.20685
      90 -> 111        0.16244
      93 -> 111        0.11545
      94 -> 111        0.25480
      97 -> 111        0.16701
      98 -> 111       -0.15262
      99 -> 111        0.19483
     100 -> 111        0.32383
     100 -> 112       -0.14606
     110 -> 130       -0.12070

 Excited State  46:      Singlet-A      7.0981 eV  174.67 nm  f=0.0018  <S**2>=0.000
      91 -> 111       -0.15905
      92 -> 111        0.12607
      93 -> 111       -0.15415
      97 -> 111       -0.23982
      98 -> 111        0.16764
      99 -> 111       -0.26349
     100 -> 111        0.37333
     100 -> 112       -0.10704
     106 -> 112        0.14057

 Excited State  47:      Singlet-A      7.1328 eV  173.82 nm  f=0.0025  <S**2>=0.000
     100 -> 111        0.14176
     110 -> 126       -0.11593
     110 -> 127        0.19603
     110 -> 129        0.15976
     110 -> 130        0.43670
     110 -> 132       -0.13653
     110 -> 133        0.10766
     110 -> 134        0.25439
     110 -> 137        0.12382

 Excited State  48:      Singlet-A      7.2066 eV  172.04 nm  f=0.0009  <S**2>=0.000
      86 -> 111        0.14430
      87 -> 111       -0.11940
      89 -> 111       -0.11674
      99 -> 111       -0.20783
     100 -> 111       -0.22222
     100 -> 112        0.10155
     101 -> 111       -0.10197
     110 -> 120       -0.10646
     110 -> 124        0.16911
     110 -> 128        0.24829
     110 -> 129        0.24165
     110 -> 135        0.11384

 Excited State  49:      Singlet-A      7.2296 eV  171.50 nm  f=0.0006  <S**2>=0.000
      86 -> 111       -0.21887
      87 -> 111        0.18410
      89 -> 111        0.15314
      90 -> 111       -0.10941
      94 -> 111       -0.14615
      99 -> 111        0.21988
     100 -> 111        0.17106
     101 -> 111        0.10384
     110 -> 124        0.13657
     110 -> 128        0.23084
     110 -> 129        0.19849

 Excited State  50:      Singlet-A      7.2692 eV  170.56 nm  f=0.0016  <S**2>=0.000
      84 -> 111        0.10909
      85 -> 111        0.11905
      86 -> 111        0.13122
      92 -> 111        0.13973
      95 -> 111       -0.22529
      96 -> 111       -0.16138
      96 -> 112       -0.11728
      97 -> 111       -0.26668
      99 -> 111        0.13741
     101 -> 111        0.36042
     101 -> 112        0.15160

 Excited State  51:      Singlet-A      7.3198 eV  169.38 nm  f=0.0026  <S**2>=0.000
     110 -> 120       -0.12036
     110 -> 121       -0.12981
     110 -> 124       -0.10934
     110 -> 126       -0.18962
     110 -> 128       -0.18003
     110 -> 129        0.23165
     110 -> 130       -0.12973
     110 -> 131        0.36758
     110 -> 133       -0.11659

 Excited State  52:      Singlet-A      7.4042 eV  167.45 nm  f=0.0727  <S**2>=0.000
      97 -> 111        0.10192
     102 -> 113        0.10828
     105 -> 113        0.23967
     105 -> 114       -0.21764
     106 -> 113        0.27895
     106 -> 114       -0.20022
     109 -> 113       -0.27693
     109 -> 114        0.24433

 Excited State  53:      Singlet-A      7.4121 eV  167.27 nm  f=0.0121  <S**2>=0.000
      90 -> 111        0.18565
      91 -> 111       -0.18003
      93 -> 111       -0.11325
      95 -> 111        0.17265
      95 -> 112       -0.14067
      96 -> 111       -0.30446
      97 -> 111        0.30851
      98 -> 111        0.21302

 Excited State  54:      Singlet-A      7.4316 eV  166.83 nm  f=0.0689  <S**2>=0.000
     102 -> 114        0.12277
     105 -> 113       -0.23428
     105 -> 114       -0.25807
     106 -> 113        0.21322
     106 -> 114        0.30049
     109 -> 113        0.25801
     109 -> 114        0.26610

 Excited State  55:      Singlet-A      7.4587 eV  166.23 nm  f=0.0140  <S**2>=0.000
     105 -> 116       -0.14949
     105 -> 118        0.12051
     106 -> 116       -0.12620
     109 -> 116        0.14138
     109 -> 130        0.10979
     110 -> 128        0.18273
     110 -> 129       -0.18382
     110 -> 131        0.24658
     110 -> 135       -0.11670
     110 -> 137        0.21769
     110 -> 138        0.16634
     110 -> 141       -0.10511

 Excited State  56:      Singlet-A      7.4820 eV  165.71 nm  f=0.0115  <S**2>=0.000
      98 -> 111        0.10743
     105 -> 115        0.14956
     105 -> 116       -0.12810
     106 -> 112       -0.10407
     106 -> 116       -0.11562
     106 -> 117       -0.10479
     109 -> 115       -0.16942
     109 -> 119        0.24621
     110 -> 132       -0.20950
     110 -> 137       -0.18046

 Excited State  57:      Singlet-A      7.4866 eV  165.61 nm  f=0.0039  <S**2>=0.000
      94 -> 111        0.11213
      95 -> 111        0.15959
      96 -> 111        0.24699
      96 -> 112        0.11374
      98 -> 111        0.40702
      98 -> 112        0.10469
      99 -> 111        0.28697
      99 -> 112        0.10850

 Excited State  58:      Singlet-A      7.5130 eV  165.03 nm  f=0.0133  <S**2>=0.000
     103 -> 116       -0.13868
     105 -> 115        0.17119
     105 -> 116        0.19373
     106 -> 112       -0.11149
     106 -> 116        0.13554
     106 -> 117       -0.15826

 The electronic state is 1-A.
 Alpha  occ. eigenvalues --  -88.98014 -88.97815 -14.47429 -14.46988 -10.36376
 Alpha  occ. eigenvalues --  -10.35928 -10.31637 -10.31509 -10.30234 -10.30125
 Alpha  occ. eigenvalues --  -10.29498 -10.29300 -10.28218 -10.28156 -10.27530
 Alpha  occ. eigenvalues --  -10.26937 -10.26853 -10.26652 -10.26527 -10.26168
 Alpha  occ. eigenvalues --  -10.26069 -10.25969 -10.25922 -10.25793 -10.25535
 Alpha  occ. eigenvalues --  -10.24754 -10.24739 -10.24028 -10.23873  -8.05739
 Alpha  occ. eigenvalues --   -8.05544  -6.02130  -6.01943  -6.01748  -6.01559
 Alpha  occ. eigenvalues --   -6.01346  -6.01137  -1.10154  -1.09975  -0.96193
 Alpha  occ. eigenvalues --   -0.96070  -0.93425  -0.93137  -0.91642  -0.89798
 Alpha  occ. eigenvalues --   -0.87429  -0.85715  -0.85405  -0.84606  -0.83116
 Alpha  occ. eigenvalues --   -0.82713  -0.81419  -0.78252  -0.74466  -0.73657
 Alpha  occ. eigenvalues --   -0.73492  -0.71213  -0.70442  -0.69022  -0.68233
 Alpha  occ. eigenvalues --   -0.66346  -0.64731  -0.64000  -0.63449  -0.60018
 Alpha  occ. eigenvalues --   -0.59888  -0.59654  -0.57827  -0.57480  -0.55759
 Alpha  occ. eigenvalues --   -0.54756  -0.54701  -0.54381  -0.53513  -0.53360
 Alpha  occ. eigenvalues --   -0.52909  -0.52570  -0.51506  -0.50635  -0.50285
 Alpha  occ. eigenvalues --   -0.49848  -0.48718  -0.47419  -0.47333  -0.46882
 Alpha  occ. eigenvalues --   -0.46662  -0.46017  -0.45723  -0.44882  -0.44669
 Alpha  occ. eigenvalues --   -0.44277  -0.43856  -0.43670  -0.43484  -0.42820
 Alpha  occ. eigenvalues --   -0.42470  -0.42130  -0.42014  -0.41783  -0.41651
 Alpha  occ. eigenvalues --   -0.41397  -0.38712  -0.38142  -0.38013  -0.34973
 Alpha  occ. eigenvalues --   -0.32043  -0.30873  -0.30760  -0.28227  -0.22229
 Alpha virt. eigenvalues --   -0.07738  -0.00597   0.01478   0.01510   0.02763
 Alpha virt. eigenvalues --    0.03312   0.03606   0.03832   0.06844   0.08145
 Alpha virt. eigenvalues --    0.08289   0.09335   0.09490   0.09721   0.09904

 Mulliken charges:
               1
     1  C   -0.317081
     2  C   -0.067683
     3  C   -0.263376
     4  C   -0.056697
     5  C    0.220478
     6  S    0.050209
     7  C    0.003296
     8  C    0.165428
     9  N   -0.001558
    10  C   -0.193981
    11  C   -0.175612
    12  C   -0.149782
    13  C   -0.266977
    14  C   -0.180237
    15  C   -0.392986
    16  C   -0.275001
    17  C   -0.035969
    18  C   -0.319419
    19  C    0.197505
    20  S    0.078113
    21  C   -0.010141
    22  C    0.175276
    23  N    0.008780
    24  C   -0.189123
    25  C   -0.172190
    26  C   -0.153103
    27  C   -0.267200
    28  C   -0.223070
    29  C   -0.395078
    30  H    0.182115
    31  H    0.162801
    32  H    0.153705
    33  H    0.168019
    34  H    0.180832
    35  H    0.173356
    36  H    0.174740
    37  H    0.189113
    38  H    0.168385
    39  H    0.167995
    40  H    0.149014
    41  H    0.148007
    42  H    0.147026
    43  H    0.153846
    44  H    0.181506
    45  H    0.171354
    46  H    0.180835
    47  H    0.174163
    48  H    0.175336
    49  H    0.193757
    50  H    0.181478
    51  H    0.175359
    52  H    0.148743
    53  H    0.151844
    54  H    0.153849
 Sum of Mulliken charges =   1.00000

 Dipole moment (field-independent basis, Debye):
    X=             -0.7646    Y=              0.5498    Z=              0.6251  Tot=              1.1304
 Quadrupole moment (field-independent basis, Debye-Ang):
   XX=             32.4909   YY=           -148.9250   ZZ=           -194.3395
   XY=             26.6937   XZ=              4.9285   YZ=              5.0739

 Normal termination of Gaussian 16 at Sat Nov  4 05:38:14 2023.
