 Gaussian 16, Revision C.02,
 Gaussian 16:  ES64L-G16RevC.02  7-Dec-2021

 ----------------------------------------------------------------
 # td=(nstates=150) CAM-b3lyp/def2TZVP scrf(smd, solvent=ethanol)
 ----------------------------------------------------------------

 ---
 B-1
 ---
 Symbolic Z-matrix:
 Charge =  0 Multiplicity = 1

                         Standard orientation:
 ---------------------------------------------------------------------
 Center     Atomic      Atomic             Coordinates (Angstroms)
 Number     Number       Type             X           Y           Z
 ---------------------------------------------------------------------
      1          6           0       13.193247    1.965180    0.357514
      2          6           0       14.150234    1.366297   -0.666837
      3          6           0       14.197930   -0.145886   -0.469985
      4          6           0       12.839886   -0.781119   -0.265942
      5          6           0       11.699193   -0.069117   -0.020535
      6          6           0       11.734254    1.463294    0.197940
      7          6           0       10.434640   -0.808638    0.027915
      8          6           0        9.147698   -0.368486    0.051934
      9          6           0        7.970978   -1.218813    0.064023
     10          6           0        6.738479   -0.618773    0.069992
     11          6           0        5.445845   -1.238015    0.078209
     12          6           0        4.280328   -0.525977    0.081210
     13          6           0        2.942601   -1.063627    0.086009
     14          6           0        1.885522   -0.185039    0.086900
     15          6           0        0.488362   -0.479870    0.088382
     16          6           0       -0.488364    0.479879    0.088381
     17          6           0       -1.885523    0.185049    0.086901
     18          6           0       -2.942603    1.063636    0.086010
     19          6           0       -4.280330    0.525984    0.081210
     20          6           0       -5.445847    1.238022    0.078205
     21          6           0       -6.738480    0.618778    0.069986
     22          6           0       -7.970980    1.218816    0.064016
     23          6           0       -9.147699    0.368486    0.051926
     24          6           0      -10.434641    0.808636    0.027911
     25          6           0      -11.699193    0.069112   -0.020539
     26          6           0      -11.734248   -1.463299    0.197935
     27          6           0       11.014600    1.853868    1.513234
     28          6           0       11.087577    2.209256   -0.996377
     29          6           0       12.878927   -2.293643   -0.398885
     30          6           0      -13.193238   -1.965187    0.357525
     31          6           0      -14.150237   -1.366308   -0.666817
     32          6           0      -14.197934    0.145875   -0.469969
     33          6           0      -12.839889    0.781111   -0.265939
     34          6           0      -11.014576   -1.853870    1.513220
     35          6           0      -11.087582   -2.209257   -0.996389
     36          6           0      -12.878932    2.293635   -0.398883
     37          6           0       -8.156563    2.717180    0.068498
     38          6           0       -2.769507    2.564242    0.088788
     39          6           0        2.769504   -2.564233    0.088790
     40          6           0        8.156557   -2.717177    0.068503
     41          1           0       13.552240    1.704444    1.363722
     42          1           0       13.191791    3.061587    0.302962
     43          1           0       15.153148    1.798268   -0.563053
     44          1           0       13.813091    1.597755   -1.685187
     45          1           0       14.836732   -0.392637    0.395545
     46          1           0       14.685170   -0.631298   -1.328645
     47          1           0       10.553209   -1.886254   -0.000126
     48          1           0        8.931571    0.694424    0.048253
     49          1           0        6.727188    0.472294    0.066595
     50          1           0        5.394190   -2.323329    0.080545
     51          1           0        4.354073    0.562407    0.078511
     52          1           0        2.136434    0.876729    0.085263
     53          1           0        0.172471   -1.521700    0.088524
     54          1           0       -0.172472    1.521709    0.088521
     55          1           0       -2.136435   -0.876720    0.085267
     56          1           0       -4.354074   -0.562400    0.078514
     57          1           0       -5.394193    2.323335    0.080538
     58          1           0       -6.727188   -0.472289    0.066588
     59          1           0       -8.931568   -0.694423    0.048240
     60          1           0      -10.553213    1.886252   -0.000123
     61          1           0       11.416560    1.280584    2.356412
     62          1           0       11.183965    2.918133    1.720013
     63          1           0        9.936160    1.690871    1.488587
     64          1           0       10.062275    1.884980   -1.187807
     65          1           0       11.067226    3.288779   -0.800274
     66          1           0       11.653135    2.045583   -1.919919
     67          1           0       13.913764   -2.648960   -0.350635
     68          1           0       12.324510   -2.809583    0.392139
     69          1           0       12.468777   -2.633235   -1.360075
     70          1           0      -13.191780   -3.061594    0.302976
     71          1           0      -13.552222   -1.704450    1.363737
     72          1           0      -15.153149   -1.798281   -0.563022
     73          1           0      -13.813104   -1.597768   -1.685170
     74          1           0      -14.836727    0.392627    0.395567
     75          1           0      -14.685183    0.631285   -1.328625
     76          1           0      -11.183932   -2.918136    1.719999
     77          1           0       -9.936137   -1.690867    1.488558
     78          1           0      -11.416527   -1.280589    2.356403
     79          1           0      -10.062283   -1.884978   -1.187830
     80          1           0      -11.067226   -3.288781   -0.800288
     81          1           0      -11.653150   -2.045585   -1.919926
     82          1           0      -13.913771    2.648951   -0.350639
     83          1           0      -12.324521    2.809577    0.392144
     84          1           0      -12.468777    2.633229   -1.360071
     85          1           0       -8.744087    3.036457    0.938730
     86          1           0       -7.209146    3.257946    0.093047
     87          1           0       -8.704221    3.047232   -0.823677
     88          1           0       -3.248036    3.011075    0.969534
     89          1           0       -1.721470    2.868026    0.092705
     90          1           0       -3.242385    3.013831   -0.793611
     91          1           0        3.242396   -3.013825   -0.793600
     92          1           0        3.248019   -3.011063    0.969546
     93          1           0        1.721466   -2.868016    0.092692
     94          1           0        7.209140   -3.257941    0.093061
     95          1           0        8.704208   -3.047230   -0.823677
     96          1           0        8.744089   -3.036455    0.938730
 ---------------------------------------------------------------------

 SCF Done:  E(RCAM-B3LYP) =  -1557.51993465     A.U. after   13 cycles

 Excitation energies and oscillator strengths:

 Excited State   1:      Singlet-A      2.3026 eV  538.46 nm  f=4.6021  <S**2>=0.000
     147 -> 150       -0.17431
     148 -> 149        0.67629
 This state for optimization and/or second-order correction.
 Total Energy, E(TD-HF/TD-DFT) =  -1557.43531694
 Copying the excited state density for this state as the 1-particle RhoCI density.

 Excited State   2:      Singlet-A      3.2478 eV  381.74 nm  f=0.0025  <S**2>=0.000
     146 -> 150       -0.14415
     147 -> 149        0.60390
     148 -> 150       -0.31452

 Excited State   3:      Singlet-A      3.6635 eV  338.43 nm  f=0.0004  <S**2>=0.000
     146 -> 150       -0.10606
     147 -> 149        0.29318
     147 -> 151        0.17692
     148 -> 150        0.59187

 Excited State   4:      Singlet-A      3.9954 eV  310.31 nm  f=0.3024  <S**2>=0.000
     145 -> 150       -0.12736
     146 -> 149        0.58479
     147 -> 150       -0.31679
     148 -> 151       -0.14462

 Excited State   5:      Singlet-A      4.3474 eV  285.19 nm  f=0.2579  <S**2>=0.000
     146 -> 149        0.26650
     147 -> 150        0.29471
     147 -> 152        0.14226
     148 -> 151        0.53000

 Excited State   6:      Singlet-A      4.6790 eV  264.98 nm  f=0.0036  <S**2>=0.000
     144 -> 150       -0.14723
     145 -> 149        0.56212
     146 -> 150       -0.32335
     147 -> 151       -0.16986

 Excited State   7:      Singlet-A      4.8760 eV  254.27 nm  f=0.0942  <S**2>=0.000
     146 -> 149        0.19124
     146 -> 151        0.14431
     147 -> 150        0.49144
     148 -> 149        0.18041
     148 -> 151       -0.38303

 Excited State   8:      Singlet-A      5.0588 eV  245.09 nm  f=0.0031  <S**2>=0.000
     145 -> 149        0.23086
     146 -> 150        0.21809
     147 -> 151        0.36736
     147 -> 155        0.11327
     148 -> 152        0.44832

 Excited State   9:      Singlet-A      5.1672 eV  239.94 nm  f=0.0179  <S**2>=0.000
     143 -> 150       -0.11944
     144 -> 149        0.57202
     145 -> 150       -0.31455
     146 -> 151       -0.16251

 Excited State  10:      Singlet-A      5.4925 eV  225.73 nm  f=0.0000  <S**2>=0.000
     145 -> 149        0.24496
     145 -> 151        0.13903
     146 -> 150        0.49774
     147 -> 149        0.19710
     148 -> 152       -0.29176

 Excited State  11:      Singlet-A      5.6553 eV  219.23 nm  f=0.0705  <S**2>=0.000
     144 -> 149        0.14726
     145 -> 150        0.14828
     146 -> 151        0.27574
     147 -> 152        0.35384
     148 -> 153       -0.17295
     148 -> 155        0.39770

 Excited State  12:      Singlet-A      5.7184 eV  216.82 nm  f=0.0006  <S**2>=0.000
     137 -> 149        0.10663
     143 -> 149        0.50342
     144 -> 150       -0.25916
     145 -> 151       -0.18417
     147 -> 151        0.25037
     148 -> 152       -0.11329

 Excited State  13:      Singlet-A      5.7658 eV  215.03 nm  f=0.0002  <S**2>=0.000
     143 -> 149       -0.24818
     144 -> 150        0.12522
     146 -> 150       -0.10059
     146 -> 152        0.15285
     147 -> 151        0.42517
     147 -> 155       -0.10327
     148 -> 150       -0.17840
     148 -> 152       -0.36393

 Excited State  14:      Singlet-A      5.8811 eV  210.82 nm  f=0.0018  <S**2>=0.000
     146 -> 153        0.14703
     147 -> 154       -0.33827
     147 -> 157       -0.13930
     148 -> 153        0.42739
     148 -> 155        0.22773
     148 -> 156       -0.25982

 Excited State  15:      Singlet-A      5.8886 eV  210.55 nm  f=0.0172  <S**2>=0.000
     146 -> 154        0.17113
     147 -> 153       -0.33880
     147 -> 155       -0.12957
     147 -> 156        0.10232
     148 -> 154        0.48219
     148 -> 157        0.22710

 Excited State  16:      Singlet-A      5.9851 eV  207.15 nm  f=0.0011  <S**2>=0.000
     133 -> 149       -0.11491
     141 -> 150        0.35811
     141 -> 152        0.11966
     142 -> 149        0.46444
     142 -> 151       -0.24231
     143 -> 150       -0.10482

 Excited State  17:      Singlet-A      5.9922 eV  206.91 nm  f=0.0000  <S**2>=0.000
     132 -> 149       -0.11167
     141 -> 149        0.46677
     141 -> 151       -0.23321
     142 -> 150        0.37091
     142 -> 152        0.12323

 Excited State  18:      Singlet-A      6.0335 eV  205.49 nm  f=0.0021  <S**2>=0.000
     146 -> 153        0.10291
     147 -> 154       -0.15309
     147 -> 161        0.10084
     148 -> 153        0.13533
     148 -> 156        0.38715
     148 -> 158        0.32540
     148 -> 160       -0.27499
     148 -> 163        0.16933

 Excited State  19:      Singlet-A      6.1014 eV  203.21 nm  f=0.0071  <S**2>=0.000
     144 -> 149        0.29855
     144 -> 151        0.16465
     145 -> 150        0.43489
     146 -> 149        0.18152
     146 -> 151        0.17005
     147 -> 152       -0.11074
     148 -> 155       -0.24692

 Excited State  20:      Singlet-A      6.1133 eV  202.81 nm  f=0.0093  <S**2>=0.000
     144 -> 150       -0.13348
     145 -> 151       -0.18004
     146 -> 152       -0.22390
     147 -> 153        0.13381
     147 -> 155       -0.26788
     147 -> 166        0.12403
     148 -> 157        0.26069
     148 -> 161       -0.20317
     148 -> 162        0.33280

 Excited State  21:      Singlet-A      6.1720 eV  200.88 nm  f=0.0005  <S**2>=0.000
     146 -> 154       -0.10383
     147 -> 155        0.12093
     147 -> 156        0.22711
     147 -> 160       -0.12987
     147 -> 168       -0.10540
     148 -> 157        0.35895
     148 -> 159        0.10906
     148 -> 161        0.38344
     148 -> 167       -0.12432

 Excited State  22:      Singlet-A      6.2800 eV  197.43 nm  f=0.0000  <S**2>=0.000
     146 -> 154       -0.10249
     147 -> 158        0.10399
     147 -> 160        0.24400
     147 -> 168        0.10148
     148 -> 159        0.49542
     148 -> 167        0.28906

 Excited State  23:      Singlet-A      6.2992 eV  196.83 nm  f=0.0002  <S**2>=0.000
     146 -> 153        0.13238
     147 -> 154       -0.12191
     147 -> 159        0.22675
     148 -> 156        0.18549
     148 -> 158        0.20762
     148 -> 160        0.38588
     148 -> 163       -0.28485
     148 -> 168        0.11658

 Excited State  24:      Singlet-A      6.3312 eV  195.83 nm  f=0.0024  <S**2>=0.000
     134 -> 149        0.10789
     138 -> 149       -0.11689
     140 -> 149       -0.14653
     147 -> 157        0.16788
     147 -> 159       -0.10083
     147 -> 162        0.13136
     148 -> 156        0.11857
     148 -> 158       -0.22648
     148 -> 166        0.44531
     148 -> 168       -0.14759

 Excited State  25:      Singlet-A      6.3483 eV  195.30 nm  f=0.0056  <S**2>=0.000
     137 -> 150        0.13486
     138 -> 149        0.24437
     140 -> 149        0.36079
     143 -> 150       -0.24173
     144 -> 151       -0.17617
     146 -> 151        0.12179
     148 -> 158       -0.13405

 Excited State  26:      Singlet-A      6.3519 eV  195.19 nm  f=0.0103  <S**2>=0.000
     146 -> 156       -0.10058
     147 -> 157       -0.15477
     147 -> 161       -0.18869
     148 -> 156       -0.15755
     148 -> 158        0.17701
     148 -> 163        0.33372
     148 -> 166        0.33623
     148 -> 168        0.19212

 Excited State  27:      Singlet-A      6.4259 eV  192.95 nm  f=0.0002  <S**2>=0.000
     126 -> 149        0.10489
     128 -> 149        0.12117
     129 -> 150        0.13082
     131 -> 149        0.49168
     131 -> 151        0.11315
     133 -> 149        0.31248
     138 -> 149       -0.12901

 Excited State  28:      Singlet-A      6.4444 eV  192.39 nm  f=0.0828  <S**2>=0.000
     145 -> 150       -0.22031
     146 -> 151        0.31629
     147 -> 152        0.20721
     147 -> 161       -0.16040
     147 -> 170        0.11004
     148 -> 155       -0.23423
     148 -> 165        0.11764
     148 -> 169        0.29664

 Excited State  29:      Singlet-A      6.4695 eV  191.64 nm  f=0.0001  <S**2>=0.000
     129 -> 149        0.23346
     132 -> 149        0.10949
     135 -> 149       -0.16742
     137 -> 149        0.30801
     139 -> 149       -0.26183
     140 -> 150        0.23594
     143 -> 151        0.14082
     144 -> 150        0.11136
     148 -> 161       -0.14018
     148 -> 170        0.13990

 Excited State  30:      Singlet-A      6.5057 eV  190.58 nm  f=0.0240  <S**2>=0.000
     145 -> 150        0.17190
     145 -> 152       -0.12205
     146 -> 151       -0.26322
     147 -> 164        0.10925
     147 -> 170        0.17154
     148 -> 155        0.18169
     148 -> 165        0.15033
     148 -> 169        0.41885

 Excited State  31:      Singlet-A      6.5230 eV  190.07 nm  f=0.0006  <S**2>=0.000
     129 -> 149        0.30070
     130 -> 149       -0.21497
     131 -> 150        0.11218
     132 -> 149        0.19952
     133 -> 150        0.12532
     137 -> 149       -0.10286
     139 -> 149       -0.10621
     143 -> 149       -0.13680
     144 -> 150       -0.19041
     145 -> 151       -0.13188
     147 -> 169       -0.11724
     148 -> 161        0.12696
     148 -> 164       -0.10709
     148 -> 170       -0.18781

 Excited State  32:      Singlet-A      6.5671 eV  188.79 nm  f=0.0002  <S**2>=0.000
     129 -> 149        0.23858
     132 -> 149        0.13861
     135 -> 149        0.10236
     137 -> 149       -0.22850
     138 -> 150       -0.14519
     140 -> 150       -0.16617
     143 -> 149        0.20035
     144 -> 150        0.20337
     145 -> 149        0.10587
     145 -> 151        0.14642
     147 -> 165        0.13188
     148 -> 164        0.17663
     148 -> 170        0.13561

 Excited State  33:      Singlet-A      6.5742 eV  188.59 nm  f=0.0001  <S**2>=0.000
     145 -> 153       -0.10505
     146 -> 157       -0.16831
     147 -> 156       -0.22093
     147 -> 158        0.14830
     147 -> 160       -0.18362
     148 -> 154        0.10343
     148 -> 157       -0.21875
     148 -> 159        0.13739
     148 -> 161        0.18765
     148 -> 162        0.36066
     148 -> 171        0.11193

 Excited State  34:      Singlet-A      6.6109 eV  187.55 nm  f=0.0004  <S**2>=0.000
     146 -> 156        0.13435
     146 -> 160        0.12114
     147 -> 157        0.19332
     147 -> 161       -0.12882
     147 -> 162       -0.22115
     148 -> 156        0.14714
     148 -> 158       -0.26167
     148 -> 160        0.17840
     148 -> 163        0.30655
     148 -> 165       -0.12281
     148 -> 166       -0.10332
     148 -> 174        0.11516

 Excited State  35:      Singlet-A      6.6361 eV  186.83 nm  f=0.0000  <S**2>=0.000
     143 -> 149       -0.20611
     143 -> 151       -0.10481
     144 -> 150       -0.25787
     145 -> 149       -0.12286
     145 -> 151       -0.12935
     147 -> 165        0.10530
     147 -> 169        0.16766
     148 -> 161        0.12331
     148 -> 162       -0.10441
     148 -> 164        0.15753
     148 -> 170        0.38642
     148 -> 173       -0.10790

 Excited State  36:      Singlet-A      6.6372 eV  186.80 nm  f=0.0000  <S**2>=0.000
     126 -> 149        0.21389
     128 -> 149        0.26816
     129 -> 150       -0.11674
     138 -> 149        0.29760
     138 -> 151       -0.12289
     139 -> 150        0.26119
     140 -> 149       -0.20842
     140 -> 151        0.12464

 Excited State  37:      Singlet-A      6.6598 eV  186.17 nm  f=0.0195  <S**2>=0.000
     145 -> 150        0.12251
     146 -> 151       -0.32725
     146 -> 155        0.14735
     147 -> 150        0.11039
     147 -> 152        0.46037
     148 -> 151       -0.18188
     148 -> 155       -0.18554

 Excited State  38:      Singlet-A      6.6919 eV  185.27 nm  f=0.0004  <S**2>=0.000
     122 -> 149        0.11507
     129 -> 149        0.10152
     137 -> 149        0.19147
     138 -> 150        0.24175
     139 -> 149        0.33918
     139 -> 151       -0.18372
     140 -> 150       -0.16410
     147 -> 158       -0.10949
     148 -> 167        0.17765
     148 -> 171        0.10400
     148 -> 175        0.11773

 Excited State  39:      Singlet-A      6.7111 eV  184.75 nm  f=0.0015  <S**2>=0.000
     137 -> 149       -0.10846
     138 -> 150       -0.12360
     139 -> 149       -0.15686
     146 -> 159       -0.13260
     147 -> 158       -0.21728
     148 -> 159       -0.13635
     148 -> 167        0.34826
     148 -> 171        0.19957
     148 -> 173        0.10383
     148 -> 175        0.16311
     148 -> 177       -0.11956

 Excited State  40:      Singlet-A      6.7304 eV  184.21 nm  f=0.0004  <S**2>=0.000
     119 -> 150       -0.10180
     121 -> 149       -0.18076
     126 -> 149       -0.19260
     128 -> 149       -0.25222
     129 -> 150        0.10614
     132 -> 150        0.20579
     133 -> 149        0.26677
     138 -> 149        0.20889
     139 -> 150        0.20200
     140 -> 149       -0.18391
     140 -> 151        0.10888
     142 -> 149        0.10140

 Excited State  41:      Singlet-A      6.8075 eV  182.13 nm  f=0.0731  <S**2>=0.000
     134 -> 149        0.17958
     137 -> 150        0.11180
     143 -> 150        0.14103
     144 -> 151        0.15634
     145 -> 152        0.17078
     146 -> 155        0.14884
     146 -> 165        0.12837
     147 -> 161        0.10887
     147 -> 162       -0.12370
     147 -> 164        0.23474
     147 -> 173        0.13311
     147 -> 175       -0.12063
     148 -> 165        0.27697
     148 -> 169       -0.13296
     148 -> 172        0.10587
     148 -> 174        0.19348

 Excited State  42:      Singlet-A      6.8661 eV  180.57 nm  f=0.0000  <S**2>=0.000
     118 -> 149       -0.10126
     119 -> 149        0.14889
     122 -> 149        0.33160
     127 -> 149       -0.23847
     128 -> 150        0.18882
     131 -> 150        0.12636
     132 -> 149       -0.26738
     132 -> 151        0.13066
     133 -> 150       -0.20100

 Excited State  43:      Singlet-A      6.8867 eV  180.03 nm  f=0.0023  <S**2>=0.000
     146 -> 158       -0.16762
     147 -> 159       -0.20694
     147 -> 167        0.20848
     148 -> 168        0.38623
     148 -> 172        0.15352
     148 -> 176       -0.23007
     148 -> 178        0.19241

 Excited State  44:      Singlet-A      6.8976 eV  179.75 nm  f=0.0036  <S**2>=0.000
     137 -> 149        0.15168
     138 -> 150        0.10161
     144 -> 150       -0.12900
     144 -> 152        0.10424
     145 -> 155        0.11838
     146 -> 161        0.10616
     146 -> 164        0.13158
     147 -> 165        0.23024
     147 -> 169       -0.11346
     147 -> 172        0.10265
     147 -> 174        0.14111
     148 -> 164        0.28387
     148 -> 170       -0.13825
     148 -> 173        0.21697
     148 -> 175       -0.18484

 Excited State  45:      Singlet-A      6.9817 eV  177.58 nm  f=0.0542  <S**2>=0.000
     130 -> 150       -0.11951
     134 -> 149        0.40403
     136 -> 149       -0.11856
     137 -> 150        0.25036
     138 -> 149        0.15633
     138 -> 151       -0.10514
     143 -> 150        0.11488
     147 -> 164       -0.16706
     148 -> 165       -0.20710

 Excited State  46:      Singlet-A      7.0384 eV  176.15 nm  f=0.0002  <S**2>=0.000
     143 -> 151        0.11080
     144 -> 150        0.28708
     145 -> 151       -0.22115
     146 -> 152       -0.27721
     147 -> 153        0.11197
     147 -> 155       -0.18092
     147 -> 165        0.11918
     147 -> 166       -0.12382
     148 -> 152        0.12304
     148 -> 161        0.21096
     148 -> 162       -0.19096
     148 -> 164        0.10824

 Excited State  47:      Singlet-A      7.0440 eV  176.01 nm  f=0.0012  <S**2>=0.000
     113 -> 149        0.12538
     118 -> 150        0.14367
     120 -> 149        0.39230
     126 -> 149       -0.24022
     127 -> 150       -0.16778
     129 -> 150        0.10884
     131 -> 149        0.16731
     131 -> 151       -0.10112
     132 -> 150       -0.14395
     133 -> 149       -0.12969

 Excited State  48:      Singlet-A      7.0733 eV  175.29 nm  f=0.0001  <S**2>=0.000
     107 -> 149       -0.10338
     115 -> 149        0.17497
     117 -> 149       -0.15125
     120 -> 149        0.26067
     121 -> 149        0.41466
     132 -> 150        0.13187
     133 -> 149        0.14534

 Excited State  49:      Singlet-A      7.1400 eV  173.65 nm  f=0.0000  <S**2>=0.000
     129 -> 149        0.17057
     130 -> 149        0.42401
     134 -> 150       -0.21125
     135 -> 149       -0.13406
     137 -> 151        0.11759
     146 -> 154       -0.12512
     147 -> 153        0.10667
     148 -> 154        0.19611
     148 -> 170       -0.10125
     148 -> 173        0.10526

 Excited State  50:      Singlet-A      7.1431 eV  173.57 nm  f=0.0001  <S**2>=0.000
     129 -> 149       -0.10115
     130 -> 149       -0.20948
     134 -> 150        0.10528
     145 -> 153        0.14105
     146 -> 154       -0.24934
     147 -> 153        0.24459
     148 -> 154        0.37580
     148 -> 175        0.10594

 Excited State  51:      Singlet-A      7.1466 eV  173.49 nm  f=0.0030  <S**2>=0.000
     134 -> 149       -0.11417
     145 -> 154        0.15642
     146 -> 153       -0.26603
     147 -> 154        0.27765
     148 -> 153        0.38753
     148 -> 155        0.14122

 Excited State  52:      Singlet-A      7.1688 eV  172.95 nm  f=0.0269  <S**2>=0.000
     134 -> 149        0.26945
     138 -> 149       -0.16088
     140 -> 149       -0.19692
     143 -> 150       -0.24724
     144 -> 151       -0.22587
     145 -> 152       -0.16308
     146 -> 155       -0.12722
     147 -> 154        0.12097
     148 -> 153        0.15711
     148 -> 166       -0.16460
     148 -> 169       -0.14455

 Excited State  53:      Singlet-A      7.1735 eV  172.84 nm  f=0.0002  <S**2>=0.000
     118 -> 149        0.37259
     120 -> 150        0.15066
     122 -> 149       -0.22459
     126 -> 150       -0.18308
     127 -> 149       -0.10937
     127 -> 151        0.10798
     130 -> 149       -0.17910
     131 -> 150        0.16423
     132 -> 149       -0.12732

 Excited State  54:      Singlet-A      7.2248 eV  171.61 nm  f=0.0000  <S**2>=0.000
     144 -> 150       -0.19261
     144 -> 152        0.16766
     145 -> 151        0.44509
     146 -> 150       -0.19416
     146 -> 152       -0.20102
     147 -> 151        0.10358
     147 -> 155       -0.25208
     148 -> 152        0.10554

 Excited State  55:      Singlet-A      7.2650 eV  170.66 nm  f=0.0003  <S**2>=0.000
     145 -> 160        0.10811
     146 -> 161       -0.12259
     146 -> 162       -0.11359
     146 -> 167       -0.11329
     147 -> 156       -0.13928
     147 -> 158       -0.13049
     147 -> 163        0.23385
     147 -> 168       -0.16278
     148 -> 167       -0.14609
     148 -> 171        0.27093
     148 -> 177       -0.21617
     148 -> 181        0.17569
     148 -> 184       -0.18602

 Excited State  56:      Singlet-A      7.2962 eV  169.93 nm  f=0.0042  <S**2>=0.000
     146 -> 159       -0.11080
     146 -> 167        0.14900
     147 -> 153        0.11714
     147 -> 156       -0.16334
     147 -> 158       -0.15535
     147 -> 163        0.10804
     147 -> 168        0.25088
     148 -> 157        0.17948
     148 -> 159       -0.11491
     148 -> 167        0.12244
     148 -> 173       -0.17655
     148 -> 175       -0.19527
     148 -> 177        0.16371
     148 -> 183       -0.11556
     148 -> 184       -0.12659

 Excited State  57:      Singlet-A      7.3027 eV  169.78 nm  f=0.0238  <S**2>=0.000
     123 -> 149       -0.31558
     125 -> 149       -0.18801
     135 -> 150       -0.26113
     136 -> 149        0.41820
     136 -> 151       -0.15071
     143 -> 150        0.10165

 Excited State  58:      Singlet-A      7.3116 eV  169.57 nm  f=0.0000  <S**2>=0.000
     116 -> 149       -0.11513
     118 -> 149        0.13882
     119 -> 149        0.21156
     120 -> 150        0.11491
     130 -> 149        0.10435
     135 -> 149        0.36238
     135 -> 151       -0.14594
     136 -> 150       -0.24449
     137 -> 149        0.18609

 The electronic state is 1-A.
 Alpha  occ. eigenvalues --  -10.25899 -10.25899 -10.25723 -10.25723 -10.25253
 Alpha  occ. eigenvalues --  -10.25253 -10.25123 -10.25123 -10.24747 -10.24679
 Alpha  occ. eigenvalues --  -10.24505 -10.24504 -10.24398 -10.24397 -10.24378
 Alpha  occ. eigenvalues --  -10.24378 -10.24208 -10.24208 -10.24068 -10.24068
 Alpha  occ. eigenvalues --  -10.24043 -10.24043 -10.23740 -10.23740 -10.23300
 Alpha  occ. eigenvalues --  -10.23300 -10.23134 -10.23134 -10.23057 -10.23057
 Alpha  occ. eigenvalues --  -10.22873 -10.22873 -10.22579 -10.22579 -10.22459
 Alpha  occ. eigenvalues --  -10.22459 -10.21953 -10.21953 -10.21930 -10.21930
 Alpha  occ. eigenvalues --   -0.93037  -0.93034  -0.92053  -0.91504  -0.90494
 Alpha  occ. eigenvalues --   -0.89851  -0.87335  -0.86330  -0.86314  -0.85716
 Alpha  occ. eigenvalues --   -0.84966  -0.83431  -0.82272  -0.79943  -0.79587
 Alpha  occ. eigenvalues --   -0.78007  -0.76376  -0.76355  -0.75805  -0.75556
 Alpha  occ. eigenvalues --   -0.75472  -0.75463  -0.74522  -0.74471  -0.74141
 Alpha  occ. eigenvalues --   -0.71079  -0.68935  -0.67370  -0.65951  -0.64109
 Alpha  occ. eigenvalues --   -0.63183  -0.63183  -0.61952  -0.61643  -0.60496
 Alpha  occ. eigenvalues --   -0.60129  -0.59374  -0.58231  -0.57075  -0.56634
 Alpha  occ. eigenvalues --   -0.55209  -0.54344  -0.54084  -0.53694  -0.53275
 Alpha  occ. eigenvalues --   -0.52713  -0.51455  -0.51119  -0.50776  -0.50593
 Alpha  occ. eigenvalues --   -0.49630  -0.49297  -0.48723  -0.48528  -0.48451
 Alpha  occ. eigenvalues --   -0.48437  -0.48295  -0.48193  -0.47909  -0.47865
 Alpha  occ. eigenvalues --   -0.47823  -0.47772  -0.46407  -0.46364  -0.46220
 Alpha  occ. eigenvalues --   -0.46111  -0.45530  -0.44900  -0.44824  -0.44751
 Alpha  occ. eigenvalues --   -0.44566  -0.44555  -0.43755  -0.43446  -0.43094
 Alpha  occ. eigenvalues --   -0.42603  -0.42515  -0.42327  -0.42138  -0.42017
 Alpha  occ. eigenvalues --   -0.41534  -0.40961  -0.40777  -0.40683  -0.40660
 Alpha  occ. eigenvalues --   -0.40463  -0.40212  -0.40035  -0.39668  -0.39597
 Alpha  occ. eigenvalues --   -0.39420  -0.39259  -0.39242  -0.38991  -0.37492
 Alpha  occ. eigenvalues --   -0.37377  -0.36715  -0.36258  -0.35996  -0.35834
 Alpha  occ. eigenvalues --   -0.34524  -0.34498  -0.33891  -0.31241  -0.29120
 Alpha  occ. eigenvalues --   -0.26341  -0.23512  -0.20673
 Alpha virt. eigenvalues --   -0.05596  -0.01716   0.01624   0.05058   0.07350
 Alpha virt. eigenvalues --    0.07397   0.07765   0.08568   0.08604   0.09443
 Alpha virt. eigenvalues --    0.09576   0.09682   0.09761   0.09993   0.10695

 Mulliken charges:
               1
     1  C   -0.244779
     2  C   -0.232456
     3  C   -0.224578
     4  C    0.073046
     5  C   -0.092007
     6  C    0.101772
     7  C   -0.145644
     8  C   -0.204882
     9  C    0.036129
    10  C   -0.187359
    11  C   -0.154937
    12  C   -0.218859
    13  C    0.077374
    14  C   -0.165438
    15  C   -0.179808
    16  C   -0.179809
    17  C   -0.165438
    18  C    0.077374
    19  C   -0.218859
    20  C   -0.154937
    21  C   -0.187359
    22  C    0.036128
    23  C   -0.204881
    24  C   -0.145644
    25  C   -0.092007
    26  C    0.101772
    27  C   -0.432107
    28  C   -0.436427
    29  C   -0.476535
    30  C   -0.244779
    31  C   -0.232456
    32  C   -0.224578
    33  C    0.073045
    34  C   -0.432106
    35  C   -0.436427
    36  C   -0.476536
    37  C   -0.458750
    38  C   -0.451555
    39  C   -0.451555
    40  C   -0.458750
    41  H    0.115737
    42  H    0.127500
    43  H    0.124541
    44  H    0.116572
    45  H    0.131318
    46  H    0.137594
    47  H    0.171022
    48  H    0.159066
    49  H    0.146922
    50  H    0.165623
    51  H    0.149218
    52  H    0.150667
    53  H    0.147400
    54  H    0.147400
    55  H    0.150667
    56  H    0.149218
    57  H    0.165624
    58  H    0.146922
    59  H    0.159066
    60  H    0.171023
    61  H    0.135254
    62  H    0.135163
    63  H    0.133105
    64  H    0.133942
    65  H    0.134187
    66  H    0.135244
    67  H    0.150523
    68  H    0.150229
    69  H    0.158992
    70  H    0.127499
    71  H    0.115737
    72  H    0.124542
    73  H    0.116572
    74  H    0.131318
    75  H    0.137594
    76  H    0.135163
    77  H    0.133104
    78  H    0.135254
    79  H    0.133943
    80  H    0.134187
    81  H    0.135243
    82  H    0.150523
    83  H    0.150229
    84  H    0.158992
    85  H    0.152919
    86  H    0.148222
    87  H    0.153221
    88  H    0.152499
    89  H    0.148693
    90  H    0.152425
    91  H    0.152425
    92  H    0.152499
    93  H    0.148693
    94  H    0.148223
    95  H    0.153221
    96  H    0.152919
 Sum of Mulliken charges =  -0.00000

 Dipole moment (field-independent basis, Debye):
    X=              0.0000    Y=             -0.0000    Z=             -0.5197  Tot=              0.5197
 Quadrupole moment (field-independent basis, Debye-Ang):
   XX=           -160.8687   YY=           -229.0717   ZZ=           -264.7264
   XY=            -15.9742   XZ=             -0.0002   YZ=              0.0000

 Normal termination of Gaussian 16 at Sat Nov  4 09:22:29 2023.
