 Gaussian 16, Revision C.02,
 Gaussian 16:  ES64L-G16RevC.02  7-Dec-2021

 ---------------------------------------------------------------
 # td=(nstates=50) CAM-b3lyp/def2TZVP scrf(smd, solvent=ethanol)
 ---------------------------------------------------------------

 ---
 B-2
 ---
 Symbolic Z-matrix:
 Charge =  0 Multiplicity = 1

                         Standard orientation:
 ---------------------------------------------------------------------
 Center     Atomic      Atomic             Coordinates (Angstroms)
 Number     Number       Type             X           Y           Z
 ---------------------------------------------------------------------
      1          6           0        4.186043   -0.985243   -0.000113
      2          6           0        2.965678   -0.099955    0.000017
      3          6           0        1.724259   -0.636470   -0.000213
      4          6           0        0.452578    0.059668   -0.000179
      5          6           0       -0.741079   -0.579413   -0.000205
      6          6           0       -2.064372    0.040415   -0.000137
      7          6           0       -3.152878   -0.763225    0.000253
      8          6           0       -4.604173   -0.385851    0.000427
      9          6           0        3.260391    1.378273    0.000567
     10          6           0       -2.133175    1.550261   -0.000541
     11          1           0        4.817179   -0.791217   -0.879673
     12          1           0        4.817098   -0.791647    0.879598
     13          1           0        3.922096   -2.047445   -0.000374
     14          1           0        1.652379   -1.725280   -0.000493
     15          1           0        0.469127    1.146468   -0.000113
     16          1           0       -0.735417   -1.670538   -0.000304
     17          1           0       -2.968126   -1.838635    0.000440
     18          1           0       -4.773466    0.693748    0.001475
     19          1           0       -5.114894   -0.802710   -0.879231
     20          1           0       -5.115042   -0.804470    0.879137
     21          1           0        2.363003    2.000757    0.000075
     22          1           0        3.859006    1.653716    0.880554
     23          1           0        3.860320    1.654180   -0.878355
     24          1           0       -1.627265    1.964044   -0.882102
     25          1           0       -3.158688    1.923675   -0.000452
     26          1           0       -1.626926    1.964596    0.880567
 ---------------------------------------------------------------------

 SCF Done:  E(RCAM-B3LYP) =  -390.574831294     A.U. after   13 cycles

 Excitation energies and oscillator strengths:

 Excited State   1:      Singlet-A      4.4391 eV  279.30 nm  f=1.4764  <S**2>=0.000
      38 -> 39         0.70352
 This state for optimization and/or second-order correction.
 Total Energy, E(TD-HF/TD-DFT) =  -390.411697794
 Copying the excited state density for this state as the 1-particle RhoCI density.

 Excited State   2:      Singlet-A      6.2327 eV  198.92 nm  f=0.0098  <S**2>=0.000
      37 -> 39         0.67159
      38 -> 41        -0.17820

 Excited State   3:      Singlet-A      6.4933 eV  190.94 nm  f=0.0092  <S**2>=0.000
      37 -> 42         0.12511
      38 -> 40         0.67328

 Excited State   4:      Singlet-A      6.5258 eV  189.99 nm  f=0.0179  <S**2>=0.000
      37 -> 39         0.18650
      38 -> 41         0.67144

 Excited State   5:      Singlet-A      6.7513 eV  183.65 nm  f=0.0001  <S**2>=0.000
      38 -> 42        -0.13090
      38 -> 43         0.61554
      38 -> 45        -0.25582

 Excited State   6:      Singlet-A      6.7754 eV  182.99 nm  f=0.0002  <S**2>=0.000
      37 -> 40         0.17342
      38 -> 42         0.64169
      38 -> 43         0.10769

 Excited State   7:      Singlet-A      6.9919 eV  177.33 nm  f=0.0239  <S**2>=0.000
      35 -> 39        -0.16718
      38 -> 44         0.64825
      38 -> 45        -0.18404

 Excited State   8:      Singlet-A      7.0263 eV  176.46 nm  f=0.0000  <S**2>=0.000
      32 -> 39         0.11841
      34 -> 41        -0.12127
      36 -> 39         0.67233

 Excited State   9:      Singlet-A      7.4897 eV  165.54 nm  f=0.0001  <S**2>=0.000
      34 -> 39         0.48514
      36 -> 41        -0.14615
      38 -> 43        -0.15897
      38 -> 44        -0.10351
      38 -> 45        -0.36489
      38 -> 47        -0.13930

 Excited State  10:      Singlet-A      7.5310 eV  164.63 nm  f=0.0001  <S**2>=0.000
      34 -> 39         0.43065
      36 -> 41        -0.12262
      37 -> 42         0.11483
      38 -> 43         0.18695
      38 -> 44         0.12187
      38 -> 45         0.42951
      38 -> 47         0.10456

 Excited State  11:      Singlet-A      7.7176 eV  160.65 nm  f=0.0000  <S**2>=0.000
      37 -> 43         0.15365
      37 -> 45        -0.11981
      38 -> 45        -0.13221
      38 -> 46         0.49067
      38 -> 47         0.35339
      38 -> 49         0.18230

 Excited State  12:      Singlet-A      7.7353 eV  160.28 nm  f=0.0421  <S**2>=0.000
      35 -> 39         0.65784
      37 -> 41         0.18985
      38 -> 44         0.12829

 Excited State  13:      Singlet-A      7.8267 eV  158.41 nm  f=0.0004  <S**2>=0.000
      30 -> 39        -0.15646
      31 -> 39         0.11410
      31 -> 41         0.10628
      32 -> 39         0.28559
      33 -> 39         0.56605

 Excited State  14:      Singlet-A      7.9626 eV  155.71 nm  f=0.0003  <S**2>=0.000
      38 -> 46        -0.25796
      38 -> 47         0.45394
      38 -> 48         0.25352
      38 -> 49        -0.29240

 Excited State  15:      Singlet-A      8.1420 eV  152.28 nm  f=0.0002  <S**2>=0.000
      30 -> 39        -0.24417
      32 -> 39         0.39583
      33 -> 39        -0.26693
      34 -> 41         0.17248
      38 -> 46         0.15352
      38 -> 47        -0.16965
      38 -> 48         0.24588

 Excited State  16:      Singlet-A      8.1580 eV  151.98 nm  f=0.0002  <S**2>=0.000
      30 -> 39         0.14305
      32 -> 39        -0.23197
      33 -> 39         0.16958
      34 -> 41        -0.10088
      37 -> 46        -0.13269
      38 -> 46         0.21044
      38 -> 47        -0.17498
      38 -> 48         0.47243
      38 -> 49        -0.16162

 Excited State  17:      Singlet-A      8.3207 eV  149.01 nm  f=0.0006  <S**2>=0.000
      37 -> 45        -0.10898
      37 -> 47        -0.15266
      38 -> 46        -0.24627
      38 -> 48         0.27908
      38 -> 49         0.53984

 Excited State  18:      Singlet-A      8.5196 eV  145.53 nm  f=0.0040  <S**2>=0.000
      28 -> 39         0.12158
      31 -> 39         0.58778
      32 -> 39        -0.10027
      33 -> 41         0.22842
      36 -> 41        -0.11358

 Excited State  19:      Singlet-A      8.6183 eV  143.86 nm  f=0.0023  <S**2>=0.000
      35 -> 42         0.10220
      37 -> 40         0.51636
      37 -> 42         0.28538
      37 -> 43        -0.11046
      37 -> 45        -0.11712
      38 -> 42        -0.14095
      38 -> 46         0.11763
      38 -> 53        -0.14838

 Excited State  20:      Singlet-A      8.6568 eV  143.22 nm  f=0.1334  <S**2>=0.000
      35 -> 39         0.10473
      37 -> 41        -0.41113
      38 -> 50         0.47828
      38 -> 52        -0.24051

 Excited State  21:      Singlet-A      8.7307 eV  142.01 nm  f=0.2094  <S**2>=0.000
      35 -> 39        -0.12441
      37 -> 41         0.48442
      37 -> 44         0.10888
      38 -> 50         0.38937
      38 -> 51        -0.14930
      38 -> 52        -0.14024

 Excited State  22:      Singlet-A      8.7906 eV  141.04 nm  f=0.0013  <S**2>=0.000
      30 -> 39         0.56136
      32 -> 39         0.31685
      32 -> 41        -0.12262
      33 -> 41         0.11453

 Excited State  23:      Singlet-A      8.8244 eV  140.50 nm  f=0.0094  <S**2>=0.000
      37 -> 50        -0.10049
      37 -> 51        -0.15329
      38 -> 50         0.12327
      38 -> 51         0.64807

 Excited State  24:      Singlet-A      8.9411 eV  138.67 nm  f=0.0095  <S**2>=0.000
      35 -> 41        -0.13554
      37 -> 44        -0.39009
      37 -> 45         0.11061
      37 -> 51        -0.10322
      38 -> 50         0.21154
      38 -> 52         0.47583

 Excited State  25:      Singlet-A      8.9716 eV  138.20 nm  f=0.0042  <S**2>=0.000
      37 -> 40         0.26896
      37 -> 42        -0.17854
      37 -> 47        -0.11531
      37 -> 49        -0.17008
      38 -> 48        -0.11023
      38 -> 53         0.47717
      38 -> 54        -0.20565

 Excited State  26:      Singlet-A      9.0431 eV  137.10 nm  f=0.0003  <S**2>=0.000
      37 -> 42         0.13895
      37 -> 43         0.56665
      37 -> 45        -0.21379
      38 -> 46        -0.11590
      38 -> 47        -0.12529
      38 -> 49        -0.10156

 Excited State  27:      Singlet-A      9.1342 eV  135.74 nm  f=0.0031  <S**2>=0.000
      35 -> 40        -0.14830
      37 -> 40         0.22128
      37 -> 42        -0.28235
      37 -> 46         0.10123
      37 -> 48        -0.10616
      37 -> 49         0.10720
      38 -> 54         0.47232
      38 -> 55        -0.21106

 Excited State  28:      Singlet-A      9.1791 eV  135.07 nm  f=0.0001  <S**2>=0.000
      37 -> 40        -0.10108
      37 -> 42         0.39402
      38 -> 40        -0.13667
      38 -> 53         0.35748
      38 -> 54         0.24542
      38 -> 55        -0.13672

 Excited State  29:      Singlet-A      9.2157 eV  134.54 nm  f=0.0096  <S**2>=0.000
      28 -> 39         0.57513
      28 -> 41         0.12081
      30 -> 41        -0.11008
      31 -> 39        -0.18134
      32 -> 41        -0.10954
      34 -> 39        -0.12611
      36 -> 41        -0.16812

 Excited State  30:      Singlet-A      9.2288 eV  134.34 nm  f=0.0056  <S**2>=0.000
      35 -> 41         0.21511
      37 -> 41        -0.12652
      37 -> 44         0.45376
      37 -> 45        -0.12883
      38 -> 50         0.10581
      38 -> 52         0.40306

 Excited State  31:      Singlet-A      9.3743 eV  132.26 nm  f=0.0034  <S**2>=0.000
      37 -> 45        -0.11013
      37 -> 49        -0.12650
      38 -> 54         0.27708
      38 -> 55         0.54279
      38 -> 59        -0.10343

 Excited State  32:      Singlet-A      9.4968 eV  130.55 nm  f=0.0704  <S**2>=0.000
      29 -> 39         0.66509
      29 -> 41        -0.21450

 Excited State  33:      Singlet-A      9.5370 eV  130.00 nm  f=0.0000  <S**2>=0.000
      26 -> 39         0.47285
      28 -> 39        -0.17837
      31 -> 41         0.15433
      32 -> 39         0.13799
      34 -> 44         0.16583
      36 -> 41        -0.27378
      38 -> 57         0.12293

 Excited State  34:      Singlet-A      9.6077 eV  129.05 nm  f=0.0070  <S**2>=0.000
      26 -> 39        -0.13118
      37 -> 45         0.10745
      37 -> 54        -0.15045
      37 -> 57         0.11060
      38 -> 55         0.12481
      38 -> 57         0.57689

 Excited State  35:      Singlet-A      9.6933 eV  127.91 nm  f=0.0002  <S**2>=0.000
      26 -> 39         0.28651
      28 -> 39         0.14228
      30 -> 41        -0.13099
      32 -> 41         0.15148
      34 -> 39         0.14264
      34 -> 44        -0.18553
      36 -> 41         0.48043

 Excited State  36:      Singlet-A      9.7507 eV  127.15 nm  f=0.0008  <S**2>=0.000
      34 -> 41        -0.16125
      35 -> 40        -0.10624
      35 -> 43         0.19491
      36 -> 44         0.17237
      37 -> 43         0.12724
      37 -> 45         0.24820
      37 -> 46         0.18196
      37 -> 47         0.14591
      37 -> 48        -0.12409
      38 -> 54        -0.15233
      38 -> 57        -0.15039
      38 -> 58        -0.16345
      38 -> 59        -0.24065
      38 -> 61         0.10586

 Excited State  37:      Singlet-A      9.7895 eV  126.65 nm  f=0.0035  <S**2>=0.000
      26 -> 39         0.10417
      34 -> 41         0.15114
      35 -> 42         0.10177
      36 -> 44        -0.16920
      37 -> 43         0.18844
      37 -> 44         0.12759
      37 -> 45         0.45038
      37 -> 46        -0.13269
      37 -> 47        -0.14220

 Excited State  38:      Singlet-A      9.7916 eV  126.62 nm  f=0.0002  <S**2>=0.000
      23 -> 39        -0.11762
      28 -> 41        -0.10539
      32 -> 39         0.10979
      34 -> 41        -0.29865
      36 -> 44         0.33357
      37 -> 45         0.11817
      37 -> 46        -0.14879
      37 -> 47        -0.15617
      37 -> 48         0.10789
      38 -> 58         0.22209
      38 -> 59         0.13052

 Excited State  39:      Singlet-A      9.8325 eV  126.10 nm  f=0.0182  <S**2>=0.000
      34 -> 40         0.11542
      34 -> 42        -0.11457
      36 -> 40         0.25109
      37 -> 56        -0.16098
      38 -> 56         0.58048

 Excited State  40:      Singlet-A      9.8942 eV  125.31 nm  f=0.0899  <S**2>=0.000
      32 -> 40        -0.10912
      34 -> 40         0.16246
      34 -> 42        -0.25388
      36 -> 40         0.48325
      36 -> 42        -0.13519
      38 -> 56        -0.30936

 Excited State  41:      Singlet-A      9.9429 eV  124.70 nm  f=0.0058  <S**2>=0.000
      35 -> 40        -0.20793
      35 -> 42        -0.11757
      35 -> 43         0.21885
      37 -> 46         0.24868
      37 -> 49         0.15943
      37 -> 53         0.16463
      38 -> 55         0.15695
      38 -> 58         0.27781
      38 -> 59         0.28397
      38 -> 61        -0.12456

 Excited State  42:      Singlet-A      9.9590 eV  124.49 nm  f=0.0245  <S**2>=0.000
      25 -> 39        -0.18548
      27 -> 39         0.62219
      27 -> 41         0.15457
      35 -> 41         0.12767
      38 -> 60        -0.13947

 Excited State  43:      Singlet-A     10.0111 eV  123.85 nm  f=0.0012  <S**2>=0.000
      32 -> 42        -0.11260
      34 -> 40        -0.40622
      34 -> 42        -0.22972
      34 -> 43        -0.12190
      36 -> 40         0.17093
      36 -> 42         0.41674

 Excited State  44:      Singlet-A     10.0525 eV  123.34 nm  f=0.0196  <S**2>=0.000
      37 -> 55        -0.15044
      37 -> 58         0.13251
      38 -> 58         0.49127
      38 -> 59        -0.33917
      38 -> 61         0.12109
      38 -> 62        -0.13464

 Excited State  45:      Singlet-A     10.0586 eV  123.26 nm  f=0.0095  <S**2>=0.000
      35 -> 41         0.44883
      37 -> 44        -0.21980
      37 -> 50        -0.10354
      37 -> 52         0.14568
      38 -> 60         0.31563
      38 -> 63         0.23969

 Excited State  46:      Singlet-A     10.0955 eV  122.81 nm  f=0.0071  <S**2>=0.000
      35 -> 40         0.16747
      35 -> 42         0.10128
      35 -> 45        -0.16506
      37 -> 42        -0.13861
      37 -> 47         0.44313
      37 -> 48         0.16323
      37 -> 49        -0.16837
      38 -> 48         0.11017
      38 -> 59         0.18113
      38 -> 61        -0.14709

 Excited State  47:      Singlet-A     10.2379 eV  121.10 nm  f=0.0143  <S**2>=0.000
      27 -> 39         0.17847
      35 -> 41        -0.36862
      37 -> 60         0.13891
      38 -> 60         0.49392

 Excited State  48:      Singlet-A     10.2557 eV  120.89 nm  f=0.0015  <S**2>=0.000
      37 -> 58         0.10275
      38 -> 55        -0.12055
      38 -> 58         0.11432
      38 -> 62         0.61330

 Excited State  49:      Singlet-A     10.3445 eV  119.86 nm  f=0.0009  <S**2>=0.000
      35 -> 40         0.37720
      35 -> 42         0.10218
      35 -> 45        -0.13470
      37 -> 46         0.19739
      37 -> 47        -0.15039
      37 -> 49         0.33266
      38 -> 59        -0.16032
      38 -> 61        -0.15304

 Excited State  50:      Singlet-A     10.3640 eV  119.63 nm  f=0.0776  <S**2>=0.000
      32 -> 40        -0.17158
      33 -> 40         0.10520
      34 -> 42        -0.27348
      36 -> 40        -0.17128
      36 -> 42        -0.15860
      36 -> 43         0.47948

 The electronic state is 1-A.
 Alpha  occ. eigenvalues --  -10.25327 -10.24939 -10.24072 -10.24009 -10.23931
 Alpha  occ. eigenvalues --  -10.23306 -10.23079 -10.22990 -10.22920 -10.22853
 Alpha  occ. eigenvalues --   -0.90913  -0.88918  -0.83967  -0.79700  -0.76491
 Alpha  occ. eigenvalues --   -0.75683  -0.72549  -0.64137  -0.59837  -0.57803
 Alpha  occ. eigenvalues --   -0.54474  -0.52380  -0.50375  -0.49478  -0.48476
 Alpha  occ. eigenvalues --   -0.47649  -0.46159  -0.44284  -0.44170  -0.43459
 Alpha  occ. eigenvalues --   -0.43082  -0.42283  -0.41511  -0.39723  -0.38565
 Alpha  occ. eigenvalues --   -0.38444  -0.32156  -0.24602
 Alpha virt. eigenvalues --    0.00439   0.08351   0.08927   0.09163   0.10451
 Alpha virt. eigenvalues --    0.12218   0.12221   0.13099   0.13937   0.14930
 Alpha virt. eigenvalues --    0.15475   0.16287   0.16375   0.17745   0.18382

 Mulliken charges:
               1
     1  C   -0.398657
     2  C    0.071079
     3  C   -0.252880
     4  C   -0.137143
     5  C   -0.203452
     6  C    0.013294
     7  C   -0.138447
     8  C   -0.397437
     9  C   -0.404545
    10  C   -0.440044
    11  H    0.139645
    12  H    0.139631
    13  H    0.137076
    14  H    0.142498
    15  H    0.162206
    16  H    0.144440
    17  H    0.145064
    18  H    0.133359
    19  H    0.143224
    20  H    0.143209
    21  H    0.135605
    22  H    0.143146
    23  H    0.143129
    24  H    0.148200
    25  H    0.139610
    26  H    0.148190
 Sum of Mulliken charges =  -0.00000

 Dipole moment (field-independent basis, Debye):
    X=              0.1648    Y=              0.5862    Z=              0.0002  Tot=              0.6089
 Quadrupole moment (field-independent basis, Debye-Ang):
   XX=            -53.3322   YY=            -59.9249   ZZ=            -68.1831
   XY=              1.0671   XZ=              0.0012   YZ=              0.0002

 Normal termination of Gaussian 16 at Sat Nov  4 03:30:57 2023.
