 Gaussian 16, Revision C.02,
 Gaussian 16:  ES64L-G16RevC.02  7-Dec-2021

 ------------------------------------------------------------
 # td=(nstates=50) wB97XD/def2TZVP scrf(smd, solvent=ethanol)
 ------------------------------------------------------------

 ---
 B-2
 ---
 Symbolic Z-matrix:
 Charge =  0 Multiplicity = 1

                         Standard orientation:
 ---------------------------------------------------------------------
 Center     Atomic      Atomic             Coordinates (Angstroms)
 Number     Number       Type             X           Y           Z
 ---------------------------------------------------------------------
      1          6           0        4.186043   -0.985243   -0.000113
      2          6           0        2.965678   -0.099955    0.000017
      3          6           0        1.724259   -0.636470   -0.000213
      4          6           0        0.452578    0.059668   -0.000179
      5          6           0       -0.741079   -0.579413   -0.000205
      6          6           0       -2.064372    0.040415   -0.000137
      7          6           0       -3.152878   -0.763225    0.000253
      8          6           0       -4.604173   -0.385851    0.000427
      9          6           0        3.260391    1.378273    0.000567
     10          6           0       -2.133175    1.550261   -0.000541
     11          1           0        4.817179   -0.791217   -0.879673
     12          1           0        4.817098   -0.791647    0.879598
     13          1           0        3.922096   -2.047445   -0.000374
     14          1           0        1.652379   -1.725280   -0.000493
     15          1           0        0.469127    1.146468   -0.000113
     16          1           0       -0.735417   -1.670538   -0.000304
     17          1           0       -2.968126   -1.838635    0.000440
     18          1           0       -4.773466    0.693748    0.001475
     19          1           0       -5.114894   -0.802710   -0.879231
     20          1           0       -5.115042   -0.804470    0.879137
     21          1           0        2.363003    2.000757    0.000075
     22          1           0        3.859006    1.653716    0.880554
     23          1           0        3.860320    1.654180   -0.878355
     24          1           0       -1.627265    1.964044   -0.882102
     25          1           0       -3.158688    1.923675   -0.000452
     26          1           0       -1.626926    1.964596    0.880567
 ---------------------------------------------------------------------

 SCF Done:  E(RwB97XD) =  -390.684975575     A.U. after   13 cycles

 Excitation energies and oscillator strengths:

 Excited State   1:      Singlet-A      4.4437 eV  279.01 nm  f=1.4785  <S**2>=0.000
      38 -> 39         0.70239
 This state for optimization and/or second-order correction.
 Total Energy, E(TD-HF/TD-DFT) =  -390.521673726
 Copying the excited state density for this state as the 1-particle RhoCI density.

 Excited State   2:      Singlet-A      6.2775 eV  197.51 nm  f=0.0093  <S**2>=0.000
      37 -> 39         0.68952

 Excited State   3:      Singlet-A      6.5901 eV  188.14 nm  f=0.0172  <S**2>=0.000
      38 -> 40         0.68756

 Excited State   4:      Singlet-A      6.8610 eV  180.71 nm  f=0.0097  <S**2>=0.000
      37 -> 42         0.14430
      38 -> 41         0.65837
      38 -> 42         0.10153

 Excited State   5:      Singlet-A      6.9602 eV  178.13 nm  f=0.0001  <S**2>=0.000
      32 -> 39         0.13057
      34 -> 40        -0.12531
      36 -> 39         0.65629
      38 -> 43         0.12805

 Excited State   6:      Singlet-A      7.0558 eV  175.72 nm  f=0.0261  <S**2>=0.000
      35 -> 39         0.20585
      38 -> 44         0.66264

 Excited State   7:      Singlet-A      7.0912 eV  174.84 nm  f=0.0001  <S**2>=0.000
      36 -> 39        -0.13365
      38 -> 42        -0.11027
      38 -> 43         0.61017
      38 -> 45        -0.24264

 Excited State   8:      Singlet-A      7.1731 eV  172.85 nm  f=0.0002  <S**2>=0.000
      37 -> 41         0.20870
      37 -> 43         0.10474
      38 -> 42         0.62115
      38 -> 47         0.10029

 Excited State   9:      Singlet-A      7.4642 eV  166.11 nm  f=0.0000  <S**2>=0.000
      34 -> 39         0.64432
      36 -> 40        -0.19976

 Excited State  10:      Singlet-A      7.7216 eV  160.57 nm  f=0.0492  <S**2>=0.000
      35 -> 39         0.64518
      37 -> 40         0.20429
      38 -> 44        -0.16604

 Excited State  11:      Singlet-A      7.7790 eV  159.38 nm  f=0.0003  <S**2>=0.000
      30 -> 39        -0.14723
      31 -> 39         0.11705
      31 -> 40         0.11235
      32 -> 39         0.27705
      33 -> 39         0.57305

 Excited State  12:      Singlet-A      7.9316 eV  156.32 nm  f=0.0000  <S**2>=0.000
      37 -> 42         0.17332
      37 -> 43         0.12851
      38 -> 43         0.19556
      38 -> 45         0.53643
      38 -> 46         0.15756
      38 -> 47         0.23313

 Excited State  13:      Singlet-A      8.0951 eV  153.16 nm  f=0.0000  <S**2>=0.000
      32 -> 39        -0.11603
      37 -> 41        -0.13332
      37 -> 43         0.16333
      37 -> 45        -0.12297
      38 -> 45        -0.20039
      38 -> 46         0.47603
      38 -> 47         0.19961
      38 -> 49        -0.23883

 Excited State  14:      Singlet-A      8.1060 eV  152.95 nm  f=0.0001  <S**2>=0.000
      30 -> 39        -0.28067
      32 -> 39         0.43809
      33 -> 39        -0.29597
      34 -> 40         0.20357
      38 -> 46         0.10068
      38 -> 47         0.11403

 Excited State  15:      Singlet-A      8.2762 eV  149.81 nm  f=0.0001  <S**2>=0.000
      37 -> 43        -0.11147
      37 -> 45        -0.10390
      38 -> 45        -0.13686
      38 -> 47         0.42395
      38 -> 48        -0.31371
      38 -> 49         0.32117

 Excited State  16:      Singlet-A      8.4777 eV  146.25 nm  f=0.0030  <S**2>=0.000
      31 -> 39         0.57935
      33 -> 40         0.23059
      36 -> 40        -0.11707
      38 -> 48        -0.14223

 Excited State  17:      Singlet-A      8.5263 eV  145.41 nm  f=0.0019  <S**2>=0.000
      31 -> 39         0.14321
      37 -> 46         0.18352
      38 -> 46        -0.15439
      38 -> 47         0.27112
      38 -> 48         0.51301
      38 -> 53        -0.15522

 Excited State  18:      Singlet-A      8.7182 eV  142.21 nm  f=0.0010  <S**2>=0.000
      30 -> 39        -0.17239
      37 -> 45         0.14773
      37 -> 47         0.15242
      38 -> 46         0.31648
      38 -> 47        -0.19074
      38 -> 49         0.47382

 Excited State  19:      Singlet-A      8.7422 eV  141.82 nm  f=0.0017  <S**2>=0.000
      30 -> 39         0.53087
      32 -> 39         0.30309
      32 -> 40        -0.12707
      33 -> 40         0.11185
      38 -> 49         0.15582

 Excited State  20:      Singlet-A      8.8357 eV  140.32 nm  f=0.2797  <S**2>=0.000
      35 -> 39        -0.15766
      35 -> 44        -0.14258
      37 -> 40         0.59567
      37 -> 44        -0.12619
      38 -> 44         0.11896
      38 -> 50        -0.18449
      38 -> 52         0.11888

 Excited State  21:      Singlet-A      8.9922 eV  137.88 nm  f=0.0423  <S**2>=0.000
      35 -> 40         0.10924
      37 -> 40         0.14709
      37 -> 44        -0.22686
      37 -> 50         0.12347
      38 -> 50         0.52737
      38 -> 52        -0.30949

 Excited State  22:      Singlet-A      9.0241 eV  137.39 nm  f=0.0013  <S**2>=0.000
      35 -> 42         0.10099
      37 -> 41         0.44589
      37 -> 42         0.25416
      37 -> 43        -0.13104
      37 -> 45        -0.15541
      37 -> 47         0.15067
      38 -> 42        -0.13615
      38 -> 46         0.15383
      38 -> 53        -0.20375

 Excited State  23:      Singlet-A      9.1521 eV  135.47 nm  f=0.0494  <S**2>=0.000
      35 -> 40        -0.22567
      37 -> 40         0.16276
      37 -> 44         0.50390
      37 -> 50         0.11677
      38 -> 50         0.28740
      38 -> 51        -0.10439
      38 -> 52         0.16604

 Excited State  24:      Singlet-A      9.1757 eV  135.12 nm  f=0.0096  <S**2>=0.000
      28 -> 39         0.59294
      28 -> 40         0.13383
      30 -> 40        -0.12048
      31 -> 39        -0.16300
      32 -> 40        -0.12784
      34 -> 39        -0.12188
      36 -> 40        -0.15504

 Excited State  25:      Singlet-A      9.2626 eV  133.86 nm  f=0.0150  <S**2>=0.000
      37 -> 51        -0.22783
      38 -> 51         0.64422

 Excited State  26:      Singlet-A      9.3456 eV  132.67 nm  f=0.0056  <S**2>=0.000
      37 -> 41         0.20277
      37 -> 49         0.23191
      38 -> 42        -0.12263
      38 -> 48         0.11672
      38 -> 53         0.49897
      38 -> 54         0.20419
      38 -> 55         0.13877
      38 -> 57         0.11155

 Excited State  27:      Singlet-A      9.4520 eV  131.17 nm  f=0.0043  <S**2>=0.000
      26 -> 39        -0.12011
      35 -> 42         0.10124
      37 -> 43         0.49211
      37 -> 45        -0.20661
      38 -> 46        -0.13155
      38 -> 54        -0.15915
      38 -> 55        -0.15312
      38 -> 62        -0.11358

 Excited State  28:      Singlet-A      9.4762 eV  130.84 nm  f=0.0001  <S**2>=0.000
      35 -> 41         0.11684
      37 -> 41        -0.22405
      37 -> 43         0.16872
      37 -> 46        -0.10858
      37 -> 48        -0.17787
      38 -> 53        -0.19231
      38 -> 54         0.42139
      38 -> 55         0.24779

 Excited State  29:      Singlet-A      9.4866 eV  130.69 nm  f=0.0753  <S**2>=0.000
      29 -> 39         0.64266
      29 -> 40        -0.23501
      38 -> 52         0.11872

 Excited State  30:      Singlet-A      9.5205 eV  130.23 nm  f=0.0000  <S**2>=0.000
      26 -> 39         0.50694
      28 -> 39        -0.10832
      30 -> 40        -0.12148
      31 -> 40         0.16554
      32 -> 39         0.12347
      34 -> 44        -0.15263
      36 -> 40        -0.20706
      37 -> 43         0.16023

 Excited State  31:      Singlet-A      9.5210 eV  130.22 nm  f=0.0067  <S**2>=0.000
      29 -> 39        -0.13269
      35 -> 40         0.16603
      37 -> 44        -0.22990
      37 -> 50         0.15393
      37 -> 52         0.13816
      38 -> 50         0.17570
      38 -> 52         0.54013

 Excited State  32:      Singlet-A      9.6678 eV  128.24 nm  f=0.0033  <S**2>=0.000
      37 -> 42        -0.20957
      37 -> 45        -0.10488
      37 -> 49         0.12900
      38 -> 54        -0.26162
      38 -> 55         0.45541
      38 -> 57        -0.14806
      38 -> 59        -0.13883

 Excited State  33:      Singlet-A      9.7064 eV  127.73 nm  f=0.0000  <S**2>=0.000
      26 -> 39         0.23784
      28 -> 39         0.14767
      30 -> 40        -0.13313
      32 -> 40         0.16360
      34 -> 39         0.15241
      34 -> 44         0.21089
      36 -> 40         0.49386

 Excited State  34:      Singlet-A      9.7199 eV  127.56 nm  f=0.0015  <S**2>=0.000
      35 -> 41         0.19707
      37 -> 41        -0.23777
      37 -> 42         0.39202
      37 -> 54         0.11952
      38 -> 41        -0.14799
      38 -> 53         0.17247
      38 -> 54        -0.22290
      38 -> 55         0.15010
      38 -> 57         0.10696

 Excited State  35:      Singlet-A      9.8014 eV  126.50 nm  f=0.0013  <S**2>=0.000
      23 -> 39         0.15499
      28 -> 40         0.14678
      30 -> 40         0.11057
      32 -> 39        -0.14188
      34 -> 40         0.35448
      36 -> 44         0.44144
      38 -> 54        -0.10524

 Excited State  36:      Singlet-A      9.9098 eV  125.11 nm  f=0.0247  <S**2>=0.000
      25 -> 39        -0.24630
      27 -> 39         0.61898
      27 -> 40         0.16992

 Excited State  37:      Singlet-A      9.9127 eV  125.08 nm  f=0.0116  <S**2>=0.000
      35 -> 41        -0.14728
      37 -> 42        -0.11005
      37 -> 54         0.17394
      37 -> 57         0.12370
      38 -> 53        -0.12655
      38 -> 55         0.10900
      38 -> 57         0.56509

 Excited State  38:      Singlet-A     10.0544 eV  123.31 nm  f=0.0016  <S**2>=0.000
      35 -> 41         0.11897
      35 -> 43        -0.21199
      37 -> 46        -0.20711
      37 -> 47        -0.14673
      37 -> 48        -0.16421
      38 -> 54        -0.19862
      38 -> 57         0.11752
      38 -> 58        -0.27331
      38 -> 59         0.33639
      38 -> 61        -0.10023

 Excited State  39:      Singlet-A     10.1353 eV  122.33 nm  f=0.0050  <S**2>=0.000
      34 -> 41         0.12807
      34 -> 42        -0.14629
      35 -> 40        -0.19058
      36 -> 41         0.27991
      36 -> 42        -0.11323
      37 -> 56        -0.15850
      38 -> 56         0.48192

 Excited State  40:      Singlet-A     10.1784 eV  121.81 nm  f=0.0430  <S**2>=0.000
      34 -> 41         0.11146
      34 -> 42        -0.23664
      35 -> 40         0.29146
      36 -> 41         0.41084
      36 -> 42        -0.10219
      37 -> 44         0.17014
      38 -> 56        -0.17382
      38 -> 60         0.13544
      38 -> 63         0.13388

 Excited State  41:      Singlet-A     10.2381 eV  121.10 nm  f=0.0968  <S**2>=0.000
      34 -> 42         0.13498
      35 -> 40         0.34716
      36 -> 41        -0.20472
      37 -> 44         0.22303
      37 -> 56        -0.14466
      38 -> 56         0.37725
      38 -> 60         0.16787
      38 -> 63         0.12228

 Excited State  42:      Singlet-A     10.2495 eV  120.97 nm  f=0.0008  <S**2>=0.000
      35 -> 41        -0.15703
      35 -> 42        -0.14814
      35 -> 43         0.21345
      37 -> 45        -0.18270
      37 -> 46         0.18350
      37 -> 49        -0.14946
      37 -> 53         0.22643
      38 -> 55         0.13040
      38 -> 59         0.33576
      38 -> 62         0.21121
      38 -> 64        -0.10641

 Excited State  43:      Singlet-A     10.2847 eV  120.55 nm  f=0.0039  <S**2>=0.000
      32 -> 42         0.12499
      33 -> 42        -0.10167
      34 -> 41         0.41180
      34 -> 42         0.19402
      34 -> 43         0.15098
      36 -> 41        -0.14273
      36 -> 42        -0.40416

 Excited State  44:      Singlet-A     10.3568 eV  119.71 nm  f=0.0233  <S**2>=0.000
      35 -> 41        -0.14673
      35 -> 43         0.19247
      37 -> 42         0.15945
      37 -> 43         0.11554
      37 -> 45         0.35843
      37 -> 55        -0.12585
      38 -> 42        -0.10521
      38 -> 55         0.12749
      38 -> 58        -0.27159
      38 -> 62        -0.16293

 Excited State  45:      Singlet-A     10.4120 eV  119.08 nm  f=0.0006  <S**2>=0.000
      22 -> 39        -0.25691
      23 -> 39         0.27055
      26 -> 39        -0.13774
      26 -> 40         0.15410
      28 -> 40         0.10015
      30 -> 40         0.10983
      31 -> 40         0.15777
      33 -> 44        -0.25686
      34 -> 40        -0.15523
      37 -> 45         0.20079
      37 -> 47        -0.12843

 Excited State  46:      Singlet-A     10.4260 eV  118.92 nm  f=0.0055  <S**2>=0.000
      25 -> 39        -0.29464
      35 -> 40        -0.31150
      37 -> 60         0.12534
      38 -> 60         0.45448
      38 -> 63         0.15367

 Excited State  47:      Singlet-A     10.4385 eV  118.78 nm  f=0.0141  <S**2>=0.000
      22 -> 39         0.18718
      26 -> 40        -0.10376
      33 -> 44         0.11759
      37 -> 43         0.13099
      37 -> 45         0.24177
      37 -> 47        -0.10104
      37 -> 55         0.12191
      38 -> 58         0.26618
      38 -> 62         0.38179

 Excited State  48:      Singlet-A     10.5028 eV  118.05 nm  f=0.0213  <S**2>=0.000
      37 -> 58        -0.15845
      38 -> 55        -0.12608
      38 -> 58        -0.36160
      38 -> 59        -0.28500
      38 -> 62         0.36533

 Excited State  49:      Singlet-A     10.5166 eV  117.89 nm  f=0.0064  <S**2>=0.000
      23 -> 39         0.15089
      33 -> 40         0.11167
      35 -> 45        -0.15283
      37 -> 42        -0.14549
      37 -> 45         0.14263
      37 -> 46         0.13588
      37 -> 47         0.37568
      37 -> 48        -0.12934
      37 -> 49         0.18496
      38 -> 48        -0.13095
      38 -> 49        -0.11248
      38 -> 59         0.12076

 Excited State  50:      Singlet-A     10.5241 eV  117.81 nm  f=0.0104  <S**2>=0.000
      25 -> 39         0.49590
      25 -> 40         0.14033
      27 -> 39         0.19850
      35 -> 44         0.12369
      37 -> 52         0.10200
      38 -> 60         0.16497
      38 -> 63         0.23573

 The electronic state is 1-A.
 Alpha  occ. eigenvalues --  -10.29487 -10.29074 -10.28171 -10.28122 -10.28043
 Alpha  occ. eigenvalues --  -10.27391 -10.27101 -10.27013 -10.26939 -10.26893
 Alpha  occ. eigenvalues --   -0.92743  -0.90746  -0.85822  -0.81553  -0.78316
 Alpha  occ. eigenvalues --   -0.77545  -0.74423  -0.66075  -0.61709  -0.59716
 Alpha  occ. eigenvalues --   -0.56322  -0.54249  -0.52227  -0.51333  -0.50349
 Alpha  occ. eigenvalues --   -0.49512  -0.48040  -0.46141  -0.46041  -0.45299
 Alpha  occ. eigenvalues --   -0.44918  -0.44131  -0.43294  -0.41572  -0.40628
 Alpha  occ. eigenvalues --   -0.40282  -0.34261  -0.26617
 Alpha virt. eigenvalues --    0.02505   0.11300   0.12077   0.12927   0.14131
 Alpha virt. eigenvalues --    0.14848   0.15971   0.16944   0.17517   0.18416
 Alpha virt. eigenvalues --    0.18943   0.19793   0.20019   0.21299   0.21882

 Mulliken charges:
               1
     1  C   -0.380952
     2  C    0.060071
     3  C   -0.297056
     4  C   -0.118432
     5  C   -0.225150
     6  C   -0.023062
     7  C   -0.149109
     8  C   -0.372002
     9  C   -0.379670
    10  C   -0.404056
    11  H    0.139251
    12  H    0.139237
    13  H    0.137483
    14  H    0.145194
    15  H    0.165904
    16  H    0.148333
    17  H    0.148469
    18  H    0.130075
    19  H    0.142907
    20  H    0.142893
    21  H    0.134157
    22  H    0.142429
    23  H    0.142409
    24  H    0.146674
    25  H    0.137344
    26  H    0.146662
 Sum of Mulliken charges =  -0.00000

 Dipole moment (field-independent basis, Debye):
    X=              0.1801    Y=              0.5875    Z=              0.0002  Tot=              0.6145
 Quadrupole moment (field-independent basis, Debye-Ang):
   XX=            -51.6800   YY=            -58.8676   ZZ=            -67.4666
   XY=              1.1314   XZ=              0.0013   YZ=              0.0002

 Normal termination of Gaussian 16 at Sat Nov  4 18:38:12 2023.
