 Gaussian 16, Revision C.02,
 Gaussian 16:  ES64L-G16RevC.02  7-Dec-2021

 -------------------------------------------------------------
 # td=(nstates=150) wB97XD/def2TZVP scrf(smd, solvent=ethanol)
 -------------------------------------------------------------

 ---
 A-2
 ---
 Symbolic Z-matrix:
 Charge =  1 Multiplicity = 1

                         Standard orientation:
 ---------------------------------------------------------------------
 Center     Atomic      Atomic             Coordinates (Angstroms)
 Number     Number       Type             X           Y           Z
 ---------------------------------------------------------------------
      1          6           0        1.185932    1.124188    0.259065
      2          6           0       -0.064042    0.518894    0.184736
      3          6           0       -1.255062    1.232433    0.206071
      4          6           0       -2.576908    0.775971    0.134368
      5          6           0        2.392634    0.431471    0.171283
      6         16           0       -3.827667    1.970009   -0.187075
      7          6           0       -5.077877    0.744792   -0.134775
      8          6           0       -4.509195   -0.508640    0.113846
      9          7           0       -3.118372   -0.458179    0.279721
     10         16           0        2.505198   -1.300121   -0.125106
     11          6           0        4.260315   -1.225762   -0.102553
     12          6           0        4.688784    0.087010    0.119416
     13          7           0        3.627512    0.981655    0.287411
     14          6           0        5.159317   -2.267461   -0.279503
     15          6           0        6.517913   -1.973596   -0.237257
     16          6           0        6.953940   -0.663841   -0.025333
     17          6           0        6.051566    0.378213    0.153458
     18          6           0       -6.446804    0.904176   -0.304215
     19          6           0       -7.251229   -0.226106   -0.226408
     20          6           0       -6.689747   -1.482485    0.014868
     21          6           0       -5.320051   -1.640504    0.186250
     22          6           0        3.847144    2.415669    0.554580
     23          6           0        3.911762    3.249637   -0.717632
     24          6           0       -2.369369   -1.660308    0.692423
     25          6           0       -1.918854   -2.522991   -0.479110
     26          1           0        1.228852    2.199196    0.376562
     27          1           0       -0.096636   -0.556945    0.072235
     28          1           0       -1.165193    2.314370    0.224199
     29          1           0        4.813961   -3.279951   -0.448352
     30          1           0        7.240415   -2.768718   -0.373960
     31          1           0        8.015538   -0.449707   -0.002068
     32          1           0        6.406822    1.388085    0.306065
     33          1           0       -6.875736    1.880738   -0.491225
     34          1           0       -8.321880   -0.129159   -0.357431
     35          1           0       -7.330326   -2.354283    0.067360
     36          1           0       -4.901973   -2.621689    0.363736
     37          1           0        3.048585    2.754296    1.212168
     38          1           0        4.772710    2.494849    1.122044
     39          1           0        4.082538    4.295496   -0.452515
     40          1           0        4.728911    2.924468   -1.364544
     41          1           0        2.978199    3.187215   -1.279982
     42          1           0       -1.531667   -1.329317    1.302601
     43          1           0       -3.027666   -2.224702    1.351768
     44          1           0       -1.276100   -1.972556   -1.168349
     45          1           0       -1.359149   -3.379171   -0.096017
     46          1           0       -2.775672   -2.899604   -1.040801
 ---------------------------------------------------------------------

 SCF Done:  E(RwB97XD) =  -1718.68768528     A.U. after   16 cycles

 Excitation energies and oscillator strengths:

 Excited State   1:      Singlet-A      2.6710 eV  464.19 nm  f=1.7001  <S**2>=0.000
      96 -> 97         0.69289
 This state for optimization and/or second-order correction.
 Total Energy, E(TD-HF/TD-DFT) =  -1718.58952913
 Copying the excited state density for this state as the 1-particle RhoCI density.

 Excited State   2:      Singlet-A      4.5927 eV  269.96 nm  f=0.0628  <S**2>=0.000
      94 ->100        -0.14138
      95 -> 97         0.58726
      96 -> 98        -0.22506
      96 ->100         0.10603

 Excited State   3:      Singlet-A      4.7183 eV  262.77 nm  f=0.0074  <S**2>=0.000
      93 -> 97        -0.21691
      93 ->100        -0.18118
      94 -> 97         0.47285
      95 -> 98         0.17302
      96 -> 99        -0.31988

 Excited State   4:      Singlet-A      4.7560 eV  260.69 nm  f=0.0033  <S**2>=0.000
      93 -> 97         0.10252
      95 ->103        -0.21612
      96 ->100        -0.10883
      96 ->101         0.59093
      96 ->103         0.18782

 Excited State   5:      Singlet-A      4.7828 eV  259.23 nm  f=0.0349  <S**2>=0.000
      93 -> 97         0.50770
      94 -> 97         0.17453
      95 -> 99         0.13357
      96 -> 98        -0.15449
      96 ->100        -0.29198
      96 ->101        -0.13807

 Excited State   6:      Singlet-A      4.9008 eV  252.99 nm  f=0.0006  <S**2>=0.000
      94 ->103        -0.10070
      95 ->101        -0.24956
      96 ->101        -0.18528
      96 ->103         0.59306

 Excited State   7:      Singlet-A      5.0170 eV  247.13 nm  f=0.1332  <S**2>=0.000
      91 -> 97         0.10428
      94 -> 97         0.31398
      94 -> 98         0.13721
      94 -> 99         0.13264
      95 -> 97         0.17251
      95 -> 98        -0.10153
      95 ->102         0.11892
      96 -> 98         0.35106
      96 -> 99         0.30899
      96 ->102        -0.13158

 Excited State   8:      Singlet-A      5.0977 eV  243.22 nm  f=0.0676  <S**2>=0.000
      93 -> 97         0.25065
      93 -> 98        -0.15540
      93 -> 99         0.14960
      94 -> 97        -0.15838
      95 -> 97         0.16250
      95 -> 98         0.11325
      95 -> 99        -0.13191
      96 -> 98         0.34863
      96 -> 99        -0.28356
      96 ->102         0.14525

 Excited State   9:      Singlet-A      5.2492 eV  236.19 nm  f=0.0108  <S**2>=0.000
      93 -> 97         0.25189
      94 -> 97         0.16744
      95 -> 97        -0.18053
      95 ->102        -0.11452
      96 ->100         0.55138
      96 ->104        -0.11485

 Excited State  10:      Singlet-A      5.3975 eV  229.71 nm  f=0.2211  <S**2>=0.000
      92 -> 97        -0.25721
      93 -> 98        -0.11393
      94 -> 97         0.16643
      94 -> 99        -0.15986
      95 ->100        -0.24435
      96 -> 99         0.30096
      96 ->102         0.41228

 Excited State  11:      Singlet-A      5.7358 eV  216.16 nm  f=0.0337  <S**2>=0.000
      92 -> 97         0.26132
      93 -> 99        -0.15986
      94 -> 98        -0.15760
      94 ->100        -0.10307
      95 -> 99        -0.10545
      95 ->102        -0.15194
      96 -> 98         0.18715
      96 ->102         0.18076
      96 ->104         0.44168

 Excited State  12:      Singlet-A      5.7781 eV  214.57 nm  f=0.1084  <S**2>=0.000
      92 -> 97         0.48291
      96 ->102         0.31763
      96 ->104        -0.24122

 Excited State  13:      Singlet-A      6.1038 eV  203.13 nm  f=0.4766  <S**2>=0.000
      92 -> 97        -0.19796
      93 -> 98         0.27355
      93 -> 99        -0.20317
      93 ->100         0.18526
      93 ->101        -0.21882
      93 ->103         0.14753
      94 -> 99         0.28029
      94 ->101         0.10031
      95 -> 98         0.12831
      96 ->102         0.22568

 Excited State  14:      Singlet-A      6.1085 eV  202.97 nm  f=0.0933  <S**2>=0.000
      90 ->101        -0.11967
      91 ->103         0.12225
      93 -> 98        -0.13831
      93 -> 99         0.13526
      93 ->101        -0.26126
      93 ->103         0.24860
      94 ->101         0.32078
      94 ->103         0.23078
      95 ->103         0.21892
      96 ->101         0.16011
      96 ->102        -0.10131

 Excited State  15:      Singlet-A      6.1271 eV  202.35 nm  f=0.1068  <S**2>=0.000
      93 -> 99         0.23353
      94 -> 98         0.30352
      94 -> 99         0.22687
      94 ->100         0.15209
      95 -> 99         0.15101
      96 -> 98        -0.14227
      96 ->100         0.12899
      96 ->104         0.38055

 Excited State  16:      Singlet-A      6.1412 eV  201.89 nm  f=0.0590  <S**2>=0.000
      91 ->103         0.10458
      93 -> 98         0.10260
      93 ->101         0.36083
      94 -> 99         0.12243
      94 ->101         0.11417
      94 ->103         0.39785
      95 ->101         0.17643
      95 ->103         0.11980
      96 ->103         0.20654

 Excited State  17:      Singlet-A      6.2411 eV  198.66 nm  f=0.0497  <S**2>=0.000
      91 -> 97         0.21947
      92 -> 98         0.13189
      93 ->102         0.15476
      94 -> 98        -0.21372
      94 ->100         0.22622
      94 ->102         0.31034
      94 ->104         0.15953
      95 -> 98        -0.15018
      95 -> 99        -0.17340
      95 ->102         0.14653
      96 -> 98        -0.17928
      96 -> 99        -0.13517

 Excited State  18:      Singlet-A      6.2690 eV  197.77 nm  f=0.0710  <S**2>=0.000
      90 -> 97        -0.20575
      92 -> 99         0.13220
      93 -> 98        -0.21003
      93 -> 99         0.12944
      93 ->100         0.30509
      93 ->102        -0.29557
      93 ->104         0.15250
      94 ->102         0.17910
      95 -> 98        -0.15810
      96 -> 98         0.11349
      96 -> 99        -0.17528

 Excited State  19:      Singlet-A      6.4796 eV  191.34 nm  f=0.0140  <S**2>=0.000
      90 -> 97        -0.16523
      91 -> 97        -0.11274
      96 ->105         0.40145
      96 ->106        -0.32012
      96 ->107         0.30979
      96 ->108         0.10862

 Excited State  20:      Singlet-A      6.5282 eV  189.92 nm  f=0.0012  <S**2>=0.000
      90 -> 97         0.34612
      91 -> 97         0.17442
      96 ->105         0.39165
      96 ->106         0.27543
      96 ->108         0.17714

 Excited State  21:      Singlet-A      6.5823 eV  188.36 nm  f=0.0299  <S**2>=0.000
      89 -> 97         0.17681
      90 -> 97         0.42977
      91 -> 97        -0.31978
      94 ->102         0.11359
      96 ->106        -0.20403
      96 ->107         0.10885

 Excited State  22:      Singlet-A      6.6251 eV  187.14 nm  f=0.0103  <S**2>=0.000
      79 -> 97         0.10099
      84 -> 97        -0.17373
      88 -> 97        -0.20083
      90 -> 97         0.17453
      91 -> 97         0.37099
      96 ->105        -0.15287
      96 ->106        -0.29430
      96 ->107         0.11956

 Excited State  23:      Singlet-A      6.6472 eV  186.52 nm  f=0.0227  <S**2>=0.000
      79 -> 97        -0.14693
      81 -> 97         0.11025
      84 -> 97         0.27500
      85 -> 97        -0.17429
      86 -> 97        -0.15778
      88 -> 97         0.34385
      89 -> 97         0.16980
      91 -> 97         0.30269

 Excited State  24:      Singlet-A      6.7709 eV  183.11 nm  f=0.0553  <S**2>=0.000
      80 -> 97        -0.11836
      84 -> 97        -0.10480
      88 -> 97        -0.11135
      89 -> 97         0.58082
      90 -> 97        -0.16071
      92 ->100         0.11893

 Excited State  25:      Singlet-A      6.8697 eV  180.48 nm  f=0.0042  <S**2>=0.000
      92 ->101        -0.33474
      93 ->103        -0.19812
      94 ->103        -0.18095
      95 ->103         0.36091
      96 ->105        -0.16266
      96 ->107         0.16212
      96 ->108         0.11081
      96 ->109         0.19818

 Excited State  26:      Singlet-A      6.8988 eV  179.72 nm  f=0.0406  <S**2>=0.000
      92 ->103        -0.30062
      93 ->101        -0.17777
      94 ->101        -0.13797
      95 -> 98        -0.10595
      95 ->101         0.34584
      96 ->103         0.11443
      96 ->107        -0.12029
      96 ->108         0.23595
      96 ->110        -0.15215
      96 ->111         0.10768

 Excited State  27:      Singlet-A      6.9337 eV  178.82 nm  f=0.5577  <S**2>=0.000
      92 -> 98         0.14011
      92 -> 99        -0.30574
      93 -> 98        -0.15601
      93 ->100         0.18827
      93 ->102        -0.14031
      94 -> 98        -0.11574
      94 ->102         0.13062
      95 -> 98         0.30658
      95 -> 99        -0.14107
      95 ->100         0.16264
      95 ->101         0.10640
      96 -> 99         0.16662

 Excited State  28:      Singlet-A      6.9482 eV  178.44 nm  f=0.2044  <S**2>=0.000
      89 -> 99         0.10161
      92 -> 98        -0.29788
      92 -> 99        -0.13040
      93 -> 99        -0.11568
      93 ->102         0.11959
      94 -> 98        -0.10583
      94 -> 99        -0.10672
      94 ->100         0.17476
      94 ->102         0.18958
      95 -> 98         0.12235
      95 -> 99         0.36010
      95 ->100         0.10168
      96 -> 98         0.16271

 Excited State  29:      Singlet-A      6.9736 eV  177.79 nm  f=0.0290  <S**2>=0.000
      92 ->103        -0.17065
      93 ->101        -0.10108
      95 ->101         0.23702
      96 ->106         0.19291
      96 ->107         0.32297
      96 ->108        -0.18464
      96 ->109        -0.15094
      96 ->110         0.23175
      96 ->111        -0.20346

 Excited State  30:      Singlet-A      7.1063 eV  174.47 nm  f=0.0063  <S**2>=0.000
      92 ->101         0.16588
      95 ->102         0.10246
      95 ->103        -0.20437
      96 ->105        -0.18770
      96 ->106         0.15207
      96 ->107         0.32795
      96 ->108         0.29724
      96 ->109         0.13873
      96 ->110        -0.14824

 Excited State  31:      Singlet-A      7.1366 eV  173.73 nm  f=0.1375  <S**2>=0.000
      92 ->100         0.13225
      92 ->102        -0.26836
      93 ->100        -0.18696
      94 ->100        -0.14430
      95 -> 98        -0.11082
      95 ->100         0.40019
      96 ->102         0.16208
      96 ->109        -0.14940

 Excited State  32:      Singlet-A      7.2112 eV  171.93 nm  f=0.0246  <S**2>=0.000
      80 -> 97         0.13594
      83 -> 97         0.17633
      87 -> 97         0.46562
      87 ->100         0.13348
      92 ->102        -0.11263
      95 ->100         0.13982
      96 ->109         0.18137

 Excited State  33:      Singlet-A      7.2454 eV  171.12 nm  f=0.0127  <S**2>=0.000
      87 -> 97        -0.27429
      95 ->105         0.11811
      96 ->109         0.34720
      96 ->110         0.30640
      96 ->111         0.16200

 Excited State  34:      Singlet-A      7.3182 eV  169.42 nm  f=0.0261  <S**2>=0.000
      85 -> 97        -0.16008
      86 -> 97        -0.15633
      88 -> 97        -0.16572
      89 ->102         0.10508
      92 ->100        -0.26213
      92 ->104        -0.13803
      93 ->102        -0.10081
      94 ->102        -0.11371
      95 ->102         0.30984
      96 ->100         0.11482
      96 ->104         0.12356
      96 ->109        -0.14740

 Excited State  35:      Singlet-A      7.3479 eV  168.73 nm  f=0.0046  <S**2>=0.000
      76 -> 97         0.13896
      77 -> 97        -0.11197
      79 -> 97         0.10915
      80 -> 97        -0.17557
      82 -> 97         0.11163
      85 -> 97         0.23278
      86 -> 97         0.21930
      87 -> 97         0.14400
      88 -> 97         0.33126
      88 ->100        -0.14639
      92 ->100        -0.13258
      95 ->102         0.16940

 Excited State  36:      Singlet-A      7.4306 eV  166.86 nm  f=0.0077  <S**2>=0.000
      87 -> 97         0.15526
      95 ->109        -0.10806
      95 ->110         0.10459
      96 ->108         0.13079
      96 ->109        -0.16398
      96 ->110         0.33252
      96 ->111         0.18136
      96 ->112        -0.28261
      96 ->113         0.19078

 Excited State  37:      Singlet-A      7.4615 eV  166.17 nm  f=0.0004  <S**2>=0.000
      72 -> 97         0.15629
      80 -> 97        -0.10020
      81 -> 97         0.18691
      84 -> 97         0.41769
      85 -> 97         0.19642
      87 -> 97         0.11393
      87 ->100         0.10562
      88 -> 97        -0.28199

 Excited State  38:      Singlet-A      7.5753 eV  163.67 nm  f=0.0073  <S**2>=0.000
      72 -> 97        -0.13310
      73 -> 97        -0.12862
      78 -> 97         0.11892
      80 -> 97         0.30337
      83 -> 97         0.30123
      84 -> 97         0.10783
      85 -> 97         0.34408
      87 -> 97        -0.15366

 Excited State  39:      Singlet-A      7.6318 eV  162.46 nm  f=0.0120  <S**2>=0.000
      86 -> 97        -0.11980
      89 ->100         0.12605
      91 ->100        -0.12125
      92 ->102        -0.15396
      95 -> 98         0.12526
      95 ->100        -0.20165
      95 ->104         0.44212

 Excited State  40:      Singlet-A      7.6671 eV  161.71 nm  f=0.0030  <S**2>=0.000
      73 -> 97         0.12508
      76 -> 97        -0.14478
      79 -> 97        -0.10969
      83 -> 97        -0.23337
      84 -> 97        -0.10478
      85 -> 97         0.34067
      86 -> 97        -0.34063
      95 ->104        -0.14246

 Excited State  41:      Singlet-A      7.7314 eV  160.36 nm  f=0.0101  <S**2>=0.000
      90 ->100         0.11592
      91 -> 98         0.11380
      93 ->102         0.12923
      93 ->104        -0.18263
      93 ->106         0.14298
      94 -> 98         0.13170
      94 ->100        -0.27035
      94 ->104         0.40040

 Excited State  42:      Singlet-A      7.7568 eV  159.84 nm  f=0.0121  <S**2>=0.000
      73 -> 97         0.15721
      76 -> 97        -0.15504
      79 -> 97        -0.14833
      80 -> 97         0.14331
      82 -> 97        -0.12731
      83 -> 97        -0.16557
      86 -> 97         0.33656
      91 -> 98         0.11334
      93 ->100        -0.13117
      93 ->104         0.21102
      94 ->104         0.13389

 Excited State  43:      Singlet-A      7.7840 eV  159.28 nm  f=0.0033  <S**2>=0.000
      86 -> 97        -0.10475
      90 ->101         0.45907
      90 ->103        -0.27814
      93 ->101        -0.16991
      93 ->104         0.13843

 Excited State  44:      Singlet-A      7.7876 eV  159.21 nm  f=0.0055  <S**2>=0.000
      78 -> 97        -0.10203
      80 -> 97        -0.12247
      86 -> 97        -0.25387
      90 -> 99        -0.11402
      90 ->101        -0.21331
      90 ->103         0.13758
      91 -> 98         0.11871
      93 ->100        -0.18967
      93 ->104         0.29257

 Excited State  45:      Singlet-A      7.8035 eV  158.88 nm  f=0.0013  <S**2>=0.000
      91 ->101         0.31371
      91 ->103         0.47673
      94 ->101        -0.11558
      94 ->103        -0.16164
      94 ->108         0.11849

 Excited State  46:      Singlet-A      7.8628 eV  157.68 nm  f=0.0480  <S**2>=0.000
      90 -> 99        -0.12807
      91 -> 98         0.17088
      91 -> 99         0.12346
      96 ->105        -0.12874
      96 ->108         0.25940
      96 ->110         0.19260
      96 ->111        -0.26130
      96 ->112         0.28380

 Excited State  47:      Singlet-A      7.9209 eV  156.53 nm  f=0.0589  <S**2>=0.000
      81 -> 97         0.13288
      88 -> 98         0.17869
      88 -> 99         0.21286
      90 -> 98        -0.28252
      90 -> 99         0.20353
      90 ->100        -0.10535
      91 -> 98         0.17325
      91 -> 99         0.30128

 Excited State  48:      Singlet-A      7.9269 eV  156.41 nm  f=0.0226  <S**2>=0.000
      81 -> 97         0.20018
      84 -> 99        -0.10560
      85 -> 98         0.13885
      87 -> 98         0.18747
      87 -> 99        -0.12994
      88 -> 98         0.19498
      88 -> 99         0.27440
      90 -> 98         0.22354
      90 -> 99        -0.17528
      91 -> 98        -0.10119
      91 -> 99        -0.19039

 Excited State  49:      Singlet-A      7.9595 eV  155.77 nm  f=0.0059  <S**2>=0.000
      73 -> 97        -0.14374
      79 -> 97         0.11857
      84 -> 98        -0.11035
      85 -> 99         0.17044
      87 -> 98        -0.27004
      87 -> 99         0.35106
      87 ->100        -0.15007
      88 -> 98         0.24037
      88 -> 99         0.14592
      88 ->100         0.11088

 Excited State  50:      Singlet-A      7.9693 eV  155.58 nm  f=0.3514  <S**2>=0.000
      90 -> 98        -0.17722
      90 -> 99         0.28275
      91 -> 98        -0.26619
      91 -> 99        -0.20305
      91 ->100        -0.10533
      92 ->102         0.14776
      93 ->104         0.14432
      94 ->104         0.19067
      95 ->104        -0.17780

 Excited State  51:      Singlet-A      8.0343 eV  154.32 nm  f=0.0872  <S**2>=0.000
      78 -> 97         0.11570
      80 -> 97         0.11752
      81 -> 97         0.21301
      82 -> 97         0.19682
      83 -> 97        -0.12319
      84 -> 97        -0.11727
      95 ->110        -0.11082
      96 ->113         0.21651
      96 ->114         0.27246
      96 ->116         0.11577
      96 ->117        -0.19014

 Excited State  52:      Singlet-A      8.0472 eV  154.07 nm  f=0.0298  <S**2>=0.000
      76 -> 97         0.14835
      78 -> 97         0.11793
      80 -> 97         0.16926
      82 -> 97         0.37132
      83 -> 97        -0.18637
      95 ->104         0.10735
      96 ->113        -0.11901
      96 ->114        -0.18380
      96 ->117         0.16819

 Excited State  53:      Singlet-A      8.0711 eV  153.61 nm  f=0.0031  <S**2>=0.000
      81 -> 97         0.32985
      83 -> 97         0.15150
      83 -> 98        -0.10779
      83 ->100         0.11449
      84 -> 97        -0.18905
      87 -> 98        -0.18514
      87 -> 99         0.18302
      87 ->100        -0.13884
      88 -> 99        -0.16219
      96 ->114        -0.10276

 Excited State  54:      Singlet-A      8.1302 eV  152.50 nm  f=0.0039  <S**2>=0.000
      93 ->108        -0.12950
      94 ->108        -0.11820
      95 ->108         0.13754
      96 ->109        -0.15352
      96 ->111         0.35238
      96 ->112         0.32489
      96 ->117        -0.14486
      96 ->120        -0.11753

 Excited State  55:      Singlet-A      8.1415 eV  152.29 nm  f=0.0088  <S**2>=0.000
      73 -> 97         0.16268
      79 -> 97        -0.15743
      81 -> 97        -0.15400
      81 -> 98        -0.22615
      81 ->100         0.14700
      82 -> 97         0.28604
      83 -> 97         0.23028
      83 -> 99         0.10174
      96 ->117        -0.10811

 Excited State  56:      Singlet-A      8.1621 eV  151.90 nm  f=0.0046  <S**2>=0.000
      95 ->109         0.10331
      96 ->113         0.16546
      96 ->115         0.39157
      96 ->116         0.17606
      96 ->117         0.21720
      96 ->118        -0.23871
      96 ->131         0.10547

 Excited State  57:      Singlet-A      8.2404 eV  150.46 nm  f=0.0093  <S**2>=0.000
      77 -> 97         0.14385
      78 -> 97         0.40851
      79 -> 97         0.18735
      80 -> 97        -0.20136
      82 -> 97        -0.11559
      89 -> 97        -0.11497
      90 ->100         0.12240
      91 ->102        -0.16852
      95 -> 99         0.11747

 Excited State  58:      Singlet-A      8.2673 eV  149.97 nm  f=0.0014  <S**2>=0.000
      89 ->101         0.10305
      92 ->103        -0.12011
      93 ->105         0.11964
      93 ->109         0.10111
      94 ->105         0.23486
      94 ->108         0.22056
      95 ->105         0.18014
      95 ->108         0.10682
      95 ->109        -0.10785
      96 ->108         0.10719
      96 ->109        -0.13019
      96 ->113        -0.17432
      96 ->115         0.18840
      96 ->119        -0.10080

 Excited State  59:      Singlet-A      8.2986 eV  149.40 nm  f=0.0998  <S**2>=0.000
      78 -> 97         0.13692
      87 ->101        -0.11628

 The electronic state is 1-A.
 Alpha  occ. eigenvalues --  -89.07579 -89.07481 -14.52563 -14.52061 -10.40781
 Alpha  occ. eigenvalues --  -10.40364 -10.35697 -10.35587 -10.34376 -10.34305
 Alpha  occ. eigenvalues --  -10.33675 -10.33392 -10.33245 -10.30958 -10.30901
 Alpha  occ. eigenvalues --  -10.30695 -10.30576 -10.30170 -10.30138 -10.30092
 Alpha  occ. eigenvalues --  -10.29946 -10.29836 -10.29711 -10.28050 -10.27822
 Alpha  occ. eigenvalues --   -8.10868  -8.10770  -6.05687  -6.05597  -6.05320
 Alpha  occ. eigenvalues --   -6.05230  -6.04911  -6.04800  -1.12688  -1.12481
 Alpha  occ. eigenvalues --   -0.98376  -0.98265  -0.95829  -0.94846  -0.92466
 Alpha  occ. eigenvalues --   -0.89263  -0.87752  -0.87469  -0.85984  -0.85095
 Alpha  occ. eigenvalues --   -0.84368  -0.81004  -0.76175  -0.75770  -0.75525
 Alpha  occ. eigenvalues --   -0.73244  -0.71898  -0.70881  -0.69687  -0.66938
 Alpha  occ. eigenvalues --   -0.66455  -0.62731  -0.62097  -0.62001  -0.59834
 Alpha  occ. eigenvalues --   -0.58950  -0.56980  -0.56964  -0.56829  -0.55832
 Alpha  occ. eigenvalues --   -0.55329  -0.55075  -0.54484  -0.53949  -0.52773
 Alpha  occ. eigenvalues --   -0.52330  -0.50808  -0.50049  -0.49530  -0.49374
 Alpha  occ. eigenvalues --   -0.48606  -0.48164  -0.47367  -0.47165  -0.46199
 Alpha  occ. eigenvalues --   -0.45806  -0.45685  -0.45450  -0.44801  -0.44276
 Alpha  occ. eigenvalues --   -0.43938  -0.43609  -0.43415  -0.41427  -0.40423
 Alpha  occ. eigenvalues --   -0.40328  -0.36553  -0.33157  -0.33047  -0.32907
 Alpha  occ. eigenvalues --   -0.26100
 Alpha virt. eigenvalues --   -0.04107   0.03672   0.03763   0.04222   0.05488
 Alpha virt. eigenvalues --    0.05548   0.06158   0.07765   0.11102   0.11512
 Alpha virt. eigenvalues --    0.12228   0.13072   0.13584   0.13809   0.14412

 Mulliken charges:
               1
     1  C   -0.430359
     2  C   -0.007828
     3  C   -0.421574
     4  C    0.241780
     5  C    0.269060
     6  S    0.076145
     7  C   -0.034915
     8  C    0.227771
     9  N    0.040494
    10  S    0.039690
    11  C   -0.022047
    12  C    0.215055
    13  N    0.033100
    14  C   -0.188775
    15  C   -0.171791
    16  C   -0.126805
    17  C   -0.324647
    18  C   -0.183914
    19  C   -0.166599
    20  C   -0.133798
    21  C   -0.326753
    22  C   -0.164073
    23  C   -0.394764
    24  C   -0.204113
    25  C   -0.400479
    26  H    0.188791
    27  H    0.179537
    28  H    0.178122
    29  H    0.175988
    30  H    0.171338
    31  H    0.171992
    32  H    0.185647
    33  H    0.176994
    34  H    0.171875
    35  H    0.172469
    36  H    0.191283
    37  H    0.166144
    38  H    0.167986
    39  H    0.150470
    40  H    0.147520
    41  H    0.148226
    42  H    0.179932
    43  H    0.175036
    44  H    0.151429
    45  H    0.152842
    46  H    0.156519
 Sum of Mulliken charges =   1.00000

 Dipole moment (field-independent basis, Debye):
    X=              1.0982    Y=              0.1593    Z=              1.2588  Tot=              1.6781
 Quadrupole moment (field-independent basis, Debye-Ang):
   XX=            -50.7703   YY=           -123.9726   ZZ=           -165.3105
   XY=             15.4515   XZ=              1.6487   YZ=              0.8989

 Normal termination of Gaussian 16 at Fri Nov  3 23:31:16 2023.
