 Gaussian 16, Revision C.02,
 Gaussian 16:  ES64L-G16RevC.02  7-Dec-2021

 -------------------------------------------------------------
 # td=(nstates=150) wB97XD/def2TZVP scrf(smd, solvent=ethanol)
 -------------------------------------------------------------

 ---
 A-1
 ---
 Symbolic Z-matrix:
 Charge =  1 Multiplicity = 1

                         Standard orientation:
 ---------------------------------------------------------------------
 Center     Atomic      Atomic             Coordinates (Angstroms)
 Number     Number       Type             X           Y           Z
 ---------------------------------------------------------------------
      1          6           0       -1.259214    0.216698   -0.039367
      2          6           0        0.000003    0.828935   -0.000122
      3          6           0        1.259209    0.216684    0.039249
      4          7           0        2.433464    0.904848    0.145998
      5         16           0       -1.557561   -1.512152    0.053882
      6          6           0       -3.297665   -1.258824   -0.027283
      7          6           0       -3.589904    0.108866   -0.118299
      8          7           0       -2.433474    0.904863   -0.146106
      9         16           0        1.557549   -1.512171   -0.053923
     10          6           0        3.297657   -1.258850    0.027304
     11          6           0        3.589900    0.108842    0.118251
     12          6           0       -4.301571   -2.224422   -0.003624
     13          6           0       -5.624645   -1.792125   -0.066975
     14          6           0       -5.925643   -0.425687   -0.149009
     15          6           0       -4.920394    0.538274   -0.174272
     16          6           0        4.301563   -2.224450    0.003718
     17          6           0        5.624635   -1.792149    0.067066
     18          6           0        5.925635   -0.425707    0.149021
     19          6           0        4.920384    0.538258    0.174213
     20          6           0       -2.510348    2.373529   -0.257226
     21          6           0       -2.566433    3.073786    1.101522
     22          6           0        2.510339    2.373497    0.257299
     23          6           0        2.566508    3.073929   -1.101357
     24          1           0        0.000014    1.909040   -0.000214
     25          1           0       -4.060576   -3.280313    0.063971
     26          1           0       -6.427238   -2.522132   -0.049094
     27          1           0       -6.962056   -0.106514   -0.191342
     28          1           0       -5.176748    1.590213   -0.228130
     29          1           0        4.060566   -3.280345   -0.063815
     30          1           0        6.427230   -2.522156    0.049231
     31          1           0        6.962048   -0.106532    0.191339
     32          1           0        5.176733    1.590201    0.228019
     33          1           0       -1.657488    2.708489   -0.852128
     34          1           0       -3.398115    2.597174   -0.852215
     35          1           0       -3.441185    2.752064    1.674572
     36          1           0       -1.673838    2.863356    1.699082
     37          1           0       -2.634230    4.156364    0.954302
     38          1           0        1.657436    2.708379    0.852183
     39          1           0        3.398074    2.597059    0.852370
     40          1           0        3.441334    2.752344   -1.674368
     41          1           0        1.673988    2.863510   -1.699033
     42          1           0        2.634214    4.156493   -0.953990
 ---------------------------------------------------------------------

 SCF Done:  E(RwB97XD) =  -1641.28403714     A.U. after   14 cycles

 Excitation energies and oscillator strengths:

 Excited State   1:      Singlet-A      3.3375 eV  371.49 nm  f=1.2299  <S**2>=0.000
      89 -> 90         0.69167
 This state for optimization and/or second-order correction.
 Total Energy, E(TD-HF/TD-DFT) =  -1641.16138682
 Copying the excited state density for this state as the 1-particle RhoCI density.

 Excited State   2:      Singlet-A      4.3757 eV  283.35 nm  f=0.0010  <S**2>=0.000
      87 -> 91        -0.13813
      89 -> 91         0.66788

 Excited State   3:      Singlet-A      4.7156 eV  262.92 nm  f=0.0244  <S**2>=0.000
      86 -> 90        -0.15701
      86 -> 93         0.17040
      87 -> 94        -0.14937
      88 -> 90         0.50950
      89 -> 92         0.36029

 Excited State   4:      Singlet-A      4.9110 eV  252.46 nm  f=0.0093  <S**2>=0.000
      86 -> 92         0.22934
      87 -> 90         0.47564
      88 -> 94        -0.18650
      89 -> 93         0.37997

 Excited State   5:      Singlet-A      5.0641 eV  244.83 nm  f=0.0199  <S**2>=0.000
      86 -> 90         0.33728
      86 -> 93        -0.10967
      86 -> 95        -0.10961
      87 -> 92        -0.16960
      88 -> 90         0.34910
      88 -> 93        -0.12960
      88 -> 95         0.12627
      89 -> 92        -0.25402
      89 -> 94        -0.28148

 Excited State   6:      Singlet-A      5.2068 eV  238.12 nm  f=0.0407  <S**2>=0.000
      83 -> 90         0.10732
      85 -> 90        -0.11224
      86 -> 92        -0.16856
      86 -> 94        -0.13929
      87 -> 90         0.42487
      87 -> 93        -0.11312
      87 -> 95         0.13125
      88 -> 92        -0.17652
      89 -> 93        -0.34032
      89 -> 95        -0.21417

 Excited State   7:      Singlet-A      5.2943 eV  234.18 nm  f=0.1677  <S**2>=0.000
      86 -> 90         0.43947
      86 -> 93         0.16219
      88 -> 90        -0.21424
      89 -> 92         0.41505
      89 -> 94        -0.15197

 Excited State   8:      Singlet-A      5.4160 eV  228.92 nm  f=0.0057  <S**2>=0.000
      84 -> 91        -0.14408
      86 -> 91        -0.25037
      87 -> 96         0.18427
      88 -> 91         0.43430
      89 -> 96        -0.38372

 Excited State   9:      Singlet-A      5.6688 eV  218.71 nm  f=0.0681  <S**2>=0.000
      86 -> 90         0.35077
      86 -> 95         0.19200
      87 -> 92         0.12735
      88 -> 90         0.18673
      88 -> 93         0.12083
      89 -> 92        -0.11611
      89 -> 94         0.48485

 Excited State  10:      Singlet-A      5.6960 eV  217.67 nm  f=0.3318  <S**2>=0.000
      85 -> 90         0.10542
      86 -> 94         0.18446
      87 -> 90         0.21055
      87 -> 93         0.24557
      88 -> 92         0.25725
      89 -> 93        -0.29828
      89 -> 95         0.40766

 Excited State  11:      Singlet-A      5.8817 eV  210.80 nm  f=0.0001  <S**2>=0.000
      84 -> 91        -0.13222
      86 -> 91         0.18956
      88 -> 91         0.42950
      89 -> 96         0.48200

 Excited State  12:      Singlet-A      5.9383 eV  208.79 nm  f=0.0135  <S**2>=0.000
      83 -> 91         0.17749
      87 -> 91         0.57527
      88 -> 96         0.27539
      89 -> 91         0.16046

 Excited State  13:      Singlet-A      6.1076 eV  203.00 nm  f=0.6959  <S**2>=0.000
      85 -> 90        -0.18778
      87 -> 93        -0.26779
      88 -> 92        -0.33765
      88 -> 94         0.11265
      89 -> 93         0.12314
      89 -> 95         0.45458

 Excited State  14:      Singlet-A      6.1582 eV  201.33 nm  f=0.3589  <S**2>=0.000
      87 -> 92         0.42942
      88 -> 93         0.42678
      89 -> 94        -0.27121
      89 -> 97        -0.14806

 Excited State  15:      Singlet-A      6.2786 eV  197.47 nm  f=0.0141  <S**2>=0.000
      83 -> 90        -0.13330
      85 -> 90         0.33541
      87 -> 93        -0.21077
      87 -> 95        -0.29060
      88 -> 92        -0.25718
      88 -> 94        -0.31546
      89 -> 93        -0.20325

 Excited State  16:      Singlet-A      6.3076 eV  196.56 nm  f=0.0064  <S**2>=0.000
      84 -> 90        -0.22806
      85 -> 92         0.13596
      86 -> 93        -0.11093
      87 -> 94         0.38960
      88 -> 95         0.39380
      89 -> 92         0.23563
      89 -> 94         0.16045

 Excited State  17:      Singlet-A      6.4751 eV  191.48 nm  f=0.0162  <S**2>=0.000
      86 -> 91         0.21934
      87 -> 92         0.10236
      89 -> 96        -0.11011
      89 -> 97         0.59955

 Excited State  18:      Singlet-A      6.4942 eV  190.91 nm  f=0.2515  <S**2>=0.000
      83 -> 90         0.14586
      85 -> 90         0.51615
      85 -> 93         0.10104
      87 -> 95         0.23348
      88 -> 94         0.26061
      89 -> 93         0.10674
      89 -> 98        -0.13684

 Excited State  19:      Singlet-A      6.5420 eV  189.52 nm  f=0.0000  <S**2>=0.000
      85 -> 96        -0.15536
      86 -> 91         0.52615
      89 -> 96        -0.24730
      89 -> 97        -0.25885

 Excited State  20:      Singlet-A      6.6574 eV  186.23 nm  f=0.0241  <S**2>=0.000
      85 -> 90         0.10268
      89 -> 98         0.52719
      89 -> 99         0.36860

 Excited State  21:      Singlet-A      6.7370 eV  184.04 nm  f=0.0410  <S**2>=0.000
      84 -> 90         0.62404
      87 -> 94         0.12203
      88 -> 90         0.12304
      88 -> 95         0.14870

 Excited State  22:      Singlet-A      6.8015 eV  182.29 nm  f=0.0093  <S**2>=0.000
      83 -> 90         0.63264
      87 -> 90        -0.13353
      88 -> 94        -0.10333

 Excited State  23:      Singlet-A      6.9761 eV  177.73 nm  f=0.0784  <S**2>=0.000
      82 -> 90         0.21339
      86 -> 92        -0.15915
      89 -> 98        -0.29824
      89 -> 99         0.42590
      89 ->101        -0.28659

 Excited State  24:      Singlet-A      7.0311 eV  176.34 nm  f=0.2221  <S**2>=0.000
      72 -> 90         0.10470
      82 -> 90         0.51304
      85 -> 93        -0.19242
      86 -> 92         0.31003
      88 -> 94         0.11261
      89 -> 93        -0.14015

 Excited State  25:      Singlet-A      7.0495 eV  175.88 nm  f=0.2760  <S**2>=0.000
      82 -> 90        -0.33705
      85 -> 93        -0.22037
      86 -> 92         0.36186
      88 -> 94         0.14259
      89 -> 93        -0.16524
      89 -> 98        -0.13177
      89 -> 99         0.23044
      89 ->101        -0.15788

 Excited State  26:      Singlet-A      7.1268 eV  173.97 nm  f=0.0665  <S**2>=0.000
      85 -> 92        -0.34584
      86 -> 93         0.47448
      87 -> 94         0.19323
      88 -> 95         0.21780
      89 -> 92        -0.15815

 Excited State  27:      Singlet-A      7.1996 eV  172.21 nm  f=0.0001  <S**2>=0.000
      73 -> 91         0.11562
      83 -> 91        -0.11270
      85 -> 91         0.52881
      86 -> 96        -0.36537
      88 -> 96         0.12945

 Excited State  28:      Singlet-A      7.3418 eV  168.87 nm  f=0.0045  <S**2>=0.000
      69 -> 90        -0.17068
      71 -> 90         0.24211
      76 -> 90         0.55072
      78 -> 90        -0.17533
      81 -> 90         0.15860

 Excited State  29:      Singlet-A      7.4254 eV  166.97 nm  f=0.0219  <S**2>=0.000
      83 -> 93        -0.12568
      84 -> 92         0.16734
      85 -> 95        -0.32414
      86 -> 94         0.48517
      88 -> 92        -0.10261
      89 -> 95        -0.20617

 Excited State  30:      Singlet-A      7.4663 eV  166.06 nm  f=0.1062  <S**2>=0.000
      76 -> 90        -0.12240
      81 -> 90         0.10231
      83 -> 92        -0.16610
      84 -> 91         0.15939
      84 -> 93         0.14295
      85 -> 94        -0.33397
      86 -> 95         0.43197
      89 -> 94        -0.15674
      89 -> 97         0.10503

 Excited State  31:      Singlet-A      7.5063 eV  165.17 nm  f=0.0063  <S**2>=0.000
      83 -> 91         0.34149
      84 -> 96        -0.27580
      86 -> 96        -0.11958
      87 -> 91        -0.28880
      87 -> 99        -0.12745
      88 -> 96         0.28012
      89 ->101         0.13847

 Excited State  32:      Singlet-A      7.5090 eV  165.11 nm  f=0.0102  <S**2>=0.000
      83 -> 96        -0.21611
      84 -> 91         0.55750
      84 -> 93        -0.11889
      86 -> 95        -0.10326
      87 -> 96         0.10251
      88 -> 91         0.18748

 Excited State  33:      Singlet-A      7.5999 eV  163.14 nm  f=0.0047  <S**2>=0.000
      86 -> 99        -0.18562
      89 ->100         0.47177
      89 ->103         0.24269
      89 ->105         0.28092
      89 ->110        -0.12482

 Excited State  34:      Singlet-A      7.6146 eV  162.82 nm  f=0.0044  <S**2>=0.000
      83 -> 91        -0.23574
      84 -> 96         0.11504
      89 -> 98        -0.17409
      89 -> 99         0.20512
      89 ->101         0.46958
      89 ->104        -0.22850

 Excited State  35:      Singlet-A      7.6294 eV  162.51 nm  f=0.0016  <S**2>=0.000
      68 -> 90        -0.12315
      75 -> 90         0.10241
      79 -> 90         0.45626
      79 -> 93        -0.12656
      79 -> 95        -0.11231
      81 -> 90        -0.33129
      82 -> 92         0.17177
      82 -> 94         0.21485

 Excited State  36:      Singlet-A      7.7716 eV  159.53 nm  f=0.0485  <S**2>=0.000
      72 -> 90         0.10768
      77 -> 90        -0.16958
      79 -> 92        -0.18973
      79 -> 94        -0.11561
      80 -> 90         0.39267
      82 -> 91         0.13084
      82 -> 93         0.17303
      83 -> 91        -0.17253
      83 -> 93         0.12041
      84 -> 92        -0.15901
      88 -> 96         0.19470

 Excited State  37:      Singlet-A      7.7938 eV  159.08 nm  f=0.0009  <S**2>=0.000
      78 -> 90         0.17349
      79 -> 90         0.22576
      79 -> 93        -0.16025
      81 -> 90         0.49610
      82 -> 92         0.19906
      87 -> 96         0.14983

 Excited State  38:      Singlet-A      7.8207 eV  158.53 nm  f=0.0612  <S**2>=0.000
      80 -> 90         0.38565
      82 -> 91        -0.15657
      83 -> 91         0.14472
      83 -> 93        -0.21789
      84 -> 92         0.27009
      86 -> 94        -0.15001
      87 -> 93         0.11740
      88 -> 96        -0.20416

 Excited State  39:      Singlet-A      7.8269 eV  158.41 nm  f=0.0638  <S**2>=0.000
      80 -> 90        -0.11782
      82 -> 91        -0.16510
      83 -> 91        -0.31326
      83 -> 93        -0.15543
      84 -> 92         0.28055
      85 -> 91        -0.10402
      86 -> 94        -0.13189
      87 -> 93         0.13799
      88 -> 96         0.35572

 Excited State  40:      Singlet-A      7.8624 eV  157.69 nm  f=0.0097  <S**2>=0.000
      78 -> 90        -0.10432
      79 -> 90        -0.11465
      81 -> 90        -0.19563
      83 -> 96         0.11719
      87 -> 96         0.45405
      88 -> 91        -0.14177
      88 -> 98        -0.15662
      88 -> 99        -0.21841

 Excited State  41:      Singlet-A      7.8970 eV  157.00 nm  f=0.0177  <S**2>=0.000
      77 -> 90         0.32102
      77 -> 93        -0.11404
      79 -> 92         0.28928
      80 -> 90         0.34449
      82 -> 93        -0.27922
      88 -> 96         0.11242

 Excited State  42:      Singlet-A      7.9246 eV  156.45 nm  f=0.1748  <S**2>=0.000
      79 -> 90         0.10396
      79 -> 93         0.11721
      82 -> 92        -0.14440
      83 -> 92        -0.30125
      84 -> 93         0.37646
      85 -> 94         0.10475
      86 -> 95        -0.20014
      87 -> 92         0.20619
      88 -> 93        -0.18501

 Excited State  43:      Singlet-A      7.9819 eV  155.33 nm  f=0.0446  <S**2>=0.000
      79 -> 90        -0.14288
      79 -> 93        -0.23475
      82 -> 92         0.26474
      82 -> 94        -0.13476
      83 -> 92        -0.13123
      84 -> 93         0.12008
      86 -> 98         0.11698
      87 -> 96        -0.17278
      89 ->102         0.26758
      89 ->103         0.16283
      89 ->108         0.14401
      89 ->110         0.12917

 Excited State  44:      Singlet-A      7.9994 eV  154.99 nm  f=0.0063  <S**2>=0.000
      84 -> 94        -0.16560
      84 -> 97        -0.13962
      87 -> 95        -0.20433
      88 -> 94         0.25329
      88 -> 97         0.51870

 Excited State  45:      Singlet-A      8.0031 eV  154.92 nm  f=0.0548  <S**2>=0.000
      75 -> 90         0.12871
      77 -> 92        -0.10580
      78 -> 90        -0.12340
      79 -> 93         0.19879
      82 -> 92        -0.19427
      83 -> 92         0.12554
      84 -> 93        -0.11024
      86 -> 98         0.10893
      86 -> 99         0.11414
      86 ->101         0.10189
      89 ->100        -0.10382
      89 ->102         0.30445
      89 ->103         0.20588
      89 ->108         0.16130
      89 ->110         0.14582

 Excited State  46:      Singlet-A      8.0692 eV  153.65 nm  f=0.0009  <S**2>=0.000
      75 -> 92        -0.10891
      77 -> 90         0.38958
      79 -> 92        -0.26692
      79 -> 94         0.20943
      82 -> 93         0.28547
      82 -> 95        -0.17037

 Excited State  47:      Singlet-A      8.0769 eV  153.50 nm  f=0.1371  <S**2>=0.000
      71 -> 90         0.11225
      76 -> 90         0.14874
      78 -> 90         0.50817
      87 -> 97         0.15488
      89 ->102         0.15098
      89 ->103        -0.13547

 Excited State  48:      Singlet-A      8.1219 eV  152.65 nm  f=0.0372  <S**2>=0.000
      74 -> 92        -0.11967
      75 -> 90         0.29142
      75 -> 93        -0.15414
      77 -> 92        -0.13176
      77 -> 94        -0.11365
      78 -> 90        -0.11601
      83 -> 92        -0.19578
      87 -> 92        -0.30209
      87 -> 97         0.10751
      88 -> 93         0.31696

 Excited State  49:      Singlet-A      8.1531 eV  152.07 nm  f=0.0109  <S**2>=0.000
      74 -> 92        -0.11762
      74 -> 94        -0.11178
      75 -> 90         0.34731
      75 -> 93        -0.16477
      77 -> 92        -0.11644
      77 -> 94        -0.14101
      79 -> 90        -0.13396
      82 -> 92         0.14816
      83 -> 92         0.14468
      87 -> 92         0.24650
      88 -> 93        -0.25729

 Excited State  50:      Singlet-A      8.1682 eV  151.79 nm  f=0.1333  <S**2>=0.000
      82 -> 91         0.27880
      83 -> 95        -0.19600
      84 -> 94         0.22657
      87 -> 93         0.37435
      88 -> 92        -0.31014

 Excited State  51:      Singlet-A      8.1931 eV  151.33 nm  f=0.0000  <S**2>=0.000
      78 -> 90        -0.20575
      86 -> 98         0.10153
      86 ->101        -0.16296
      87 -> 94         0.10377
      87 -> 97         0.17753
      87 ->100         0.11981
      88 -> 99        -0.11812
      89 ->100         0.29207
      89 ->103        -0.26851
      89 ->105        -0.24579
      89 ->110         0.10139

 Excited State  52:      Singlet-A      8.2143 eV  150.94 nm  f=0.0419  <S**2>=0.000
      72 -> 90         0.13933
      73 -> 90        -0.10156
      74 -> 90         0.29436
      74 -> 93        -0.16258
      75 -> 92        -0.26701
      75 -> 94        -0.16690
      77 -> 93        -0.18772
      80 -> 90        -0.12612
      82 -> 91         0.14846
      82 -> 95         0.11352
      83 -> 95        -0.13731
      84 -> 94         0.14259
      89 ->104        -0.11742

 Excited State  53:      Singlet-A      8.2270 eV  150.70 nm  f=0.0700  <S**2>=0.000
      82 -> 91        -0.17762
      83 -> 93         0.21500
      83 -> 95         0.13358
      84 -> 92        -0.16215
      84 -> 94        -0.14284
      86 -> 97         0.16381
      87 -> 93         0.24166
      88 -> 92        -0.22192
      89 ->101        -0.11857
      89 ->104        -0.23968
      89 ->106         0.15463

 Excited State  54:      Singlet-A      8.2481 eV  150.32 nm  f=0.0463  <S**2>=0.000
      74 -> 90         0.14270
      75 -> 92        -0.11674
      83 -> 93         0.12553
      84 -> 92        -0.10841
      84 -> 94        -0.10585
      86 ->100        -0.16516
      87 -> 93         0.14806
      88 -> 92        -0.12450
      88 ->100        -0.10884
      89 ->101         0.14264
      89 ->104         0.36242
      89 ->106        -0.21755

 Excited State  55:      Singlet-A      8.2712 eV  149.90 nm  f=0.0306  <S**2>=0.000
      83 -> 97         0.11680
      86 ->101         0.10781
      87 -> 92         0.15184
      87 -> 94         0.29382
      87 -> 97         0.36545
      87 ->100        -0.12029
      88 -> 90         0.10316
      88 -> 93        -0.11525
      88 -> 95        -0.20676
      89 ->100        -0.17382
      89 ->105         0.17939

 Excited State  56:      Singlet-A      8.3251 eV  148.93 nm  f=0.0076  <S**2>=0.000
      83 -> 94         0.22993
      84 -> 95        -0.21892
      87 -> 97         0.12972
      87 ->100         0.11848
      87 ->103         0.10099
      88 -> 98         0.14331
      88 -> 99        -0.12783
      89 ->102        -0.23844
      89 ->103         0.34920
      89 ->105        -0.19183

 Excited State  57:      Singlet-A      8.3465 eV  148.55 nm  f=0.0051  <S**2>=0.000
      85 -> 91         0.28184
      85 -> 99         0.15687
      86 -> 96         0.43719
      86 -> 97        -0.12227
      86 ->100         0.12050
      86 ->102        -0.10548
      87 -> 98        -0.14315
      87 -> 99        -0.10191
      89 ->104        -0.12602

 Excited State  58:      Singlet-A      8.3680 eV  148.16 nm  f=0.1695  <S**2>=0.000
      83 -> 94        -0.33928
      84 -> 95         0.39465
      86 -> 93         0.10389
      87 -> 94         0.12875
      88 -> 95        -0.17538
      88 -> 98         0.11763
      89 ->102        -0.11412
      89 ->103         0.20361

 Excited State  59:      Singlet-A      8.4213 eV  147.23 nm  f=0.0338  <S**2>=0.000
      73 -> 90         0.27069
      74 -> 90         0.23824
      79 -> 94         0.14181
      82 -> 91        -0.14557
      82 -> 95        -0.12797
      83 -> 95        -0.10788
      84 -> 94         0.13410
      85 -> 91         0.11336
      86 -> 92         0.12309
      86 -> 96         0.10706
      87 -> 98         0.11657
      87 -> 99        -0.16126
      88 -> 97         0.11444
      88 ->100         0.15225

 Excited State  60:      Singlet-A      8.4368 eV  146.96 nm  f=0.0452  <S**2>=0.000
      73 -> 90        -0.18446
      74 -> 90        -0.17861
      84 -> 94        -0.10401
      87 -> 98         0.19940
      87 -> 99        -0.21914
      87 ->101         0.15329
      87 ->104        -0.15197
      88 ->100         0.26713
      88 ->103         0.13385
      88 ->105         0.14087
      89 ->104         0.10992

 Excited State  61:      Singlet-A      8.4373 eV  146.95 nm  f=0.0063  <S**2>=0.000
      86 -> 98        -0.10867
      86 ->104         0.10800
      87 ->100         0.16234
      87 ->102         0.13229
      87 ->103         0.12293
      87 ->105         0.13030
      87 ->108         0.10522
      88 -> 98         0.28389
      88 -> 99        -0.11901
      88 ->101         0.25363
      88 ->104        -0.15544
      89 ->100        -0.12571
      89 ->102         0.19176
      89 ->103        -0.18113
      89 ->105         0.18551

 Excited State  62:      Singlet-A      8.4750 eV  146.29 nm  f=0.0004  <S**2>=0.000
      68 -> 90        -0.17040
      74 -> 92         0.21231
      75 -> 90         0.23700
      75 -> 93         0.31984
      77 -> 92         0.27155
      77 -> 94        -0.17864
      79 -> 95         0.17055

 Excited State  63:      Singlet-A      8.5091 eV  145.71 nm  f=0.0032  <S**2>=0.000
      67 -> 90         0.13130
      72 -> 90         0.11343
      73 -> 90         0.12243
      74 -> 90        -0.23204
      76 -> 94        -0.10947
      77 -> 90         0.14297
      77 -> 95         0.14338
      79 -> 94        -0.17153
      82 -> 95         0.17882
      83 -> 95        -0.12817
      84 -> 94         0.11894
      85 -> 95         0.11870
      86 -> 94         0.11081
      86 -> 97         0.34158

 Excited State  64:      Singlet-A      8.5267 eV  145.41 nm  f=0.0182  <S**2>=0.000
      67 -> 90        -0.12603
      70 -> 90         0.15417

 The electronic state is 1-A.
 Alpha  occ. eigenvalues --  -89.08344 -89.08344 -14.52537 -14.52537 -10.41512
 Alpha  occ. eigenvalues --  -10.41512 -10.36064 -10.36064 -10.34737 -10.34736
 Alpha  occ. eigenvalues --  -10.33750 -10.33750 -10.31339 -10.31311 -10.31311
 Alpha  occ. eigenvalues --  -10.30948 -10.30948 -10.30450 -10.30450 -10.30155
 Alpha  occ. eigenvalues --  -10.30155 -10.28118 -10.28118  -8.11608  -8.11608
 Alpha  occ. eigenvalues --   -6.06430  -6.06430  -6.06060  -6.06060  -6.05651
 Alpha  occ. eigenvalues --   -6.05650  -1.12799  -1.12437  -0.98446  -0.98298
 Alpha  occ. eigenvalues --   -0.96295  -0.94092  -0.90977  -0.88003  -0.87595
 Alpha  occ. eigenvalues --   -0.86547  -0.85249  -0.84479  -0.82015  -0.76041
 Alpha  occ. eigenvalues --   -0.75831  -0.75580  -0.72992  -0.71047  -0.70987
 Alpha  occ. eigenvalues --   -0.68750  -0.66259  -0.62845  -0.62266  -0.62128
 Alpha  occ. eigenvalues --   -0.60018  -0.59226  -0.57511  -0.57180  -0.56529
 Alpha  occ. eigenvalues --   -0.55330  -0.55055  -0.54873  -0.54680  -0.52609
 Alpha  occ. eigenvalues --   -0.52297  -0.52112  -0.50870  -0.49582  -0.49392
 Alpha  occ. eigenvalues --   -0.48500  -0.48029  -0.47490  -0.46727  -0.46031
 Alpha  occ. eigenvalues --   -0.45644  -0.45396  -0.44757  -0.44542  -0.44208
 Alpha  occ. eigenvalues --   -0.43874  -0.42933  -0.40982  -0.40348  -0.38514
 Alpha  occ. eigenvalues --   -0.34192  -0.33607  -0.32974  -0.28004
 Alpha virt. eigenvalues --   -0.02648   0.02942   0.03141   0.03860   0.04657
 Alpha virt. eigenvalues --    0.05622   0.08218   0.09507   0.10306   0.12178
 Alpha virt. eigenvalues --    0.12665   0.13224   0.14314   0.14529   0.14640

 Mulliken charges:
               1
     1  C    0.183241
     2  C   -0.421330
     3  C    0.183227
     4  N    0.037083
     5  S    0.056781
     6  C   -0.018481
     7  C    0.204295
     8  N    0.037076
     9  S    0.056782
    10  C   -0.018478
    11  C    0.204292
    12  C   -0.190822
    13  C   -0.169259
    14  C   -0.125600
    15  C   -0.319445
    16  C   -0.190818
    17  C   -0.169257
    18  C   -0.125605
    19  C   -0.319446
    20  C   -0.168942
    21  C   -0.400387
    22  C   -0.168947
    23  C   -0.400396
    24  H    0.226308
    25  H    0.178976
    26  H    0.173547
    27  H    0.174570
    28  H    0.188385
    29  H    0.178977
    30  H    0.173547
    31  H    0.174570
    32  H    0.188392
    33  H    0.167698
    34  H    0.172858
    35  H    0.149744
    36  H    0.150571
    37  H    0.152709
    38  H    0.167698
    39  H    0.172861
    40  H    0.149743
    41  H    0.150573
    42  H    0.152707
 Sum of Mulliken charges =   1.00000

 Dipole moment (field-independent basis, Debye):
    X=              0.0001    Y=              5.2095    Z=              0.0001  Tot=              5.2095
 Quadrupole moment (field-independent basis, Debye-Ang):
   XX=            -67.3003   YY=           -107.9192   ZZ=           -153.4093
   XY=             -0.0003   XZ=              2.2743   YZ=             -0.0005

 Normal termination of Gaussian 16 at Fri Nov  3 22:46:10 2023.
