 Gaussian 16, Revision C.02,
 Gaussian 16:  ES64L-G16RevC.02  7-Dec-2021

 -------------------------------------------------------------
 # td=(nstates=150) wB97XD/def2TZVP scrf(smd, solvent=ethanol)
 -------------------------------------------------------------

 ---
 B-1
 ---
 Symbolic Z-matrix:
 Charge =  0 Multiplicity = 1

                         Standard orientation:
 ---------------------------------------------------------------------
 Center     Atomic      Atomic             Coordinates (Angstroms)
 Number     Number       Type             X           Y           Z
 ---------------------------------------------------------------------
      1          6           0       13.193247    1.965180    0.357514
      2          6           0       14.150234    1.366297   -0.666837
      3          6           0       14.197930   -0.145886   -0.469985
      4          6           0       12.839886   -0.781119   -0.265942
      5          6           0       11.699193   -0.069117   -0.020535
      6          6           0       11.734254    1.463294    0.197940
      7          6           0       10.434640   -0.808638    0.027915
      8          6           0        9.147698   -0.368486    0.051934
      9          6           0        7.970978   -1.218813    0.064023
     10          6           0        6.738479   -0.618773    0.069992
     11          6           0        5.445845   -1.238015    0.078209
     12          6           0        4.280328   -0.525977    0.081210
     13          6           0        2.942601   -1.063627    0.086009
     14          6           0        1.885522   -0.185039    0.086900
     15          6           0        0.488362   -0.479870    0.088382
     16          6           0       -0.488364    0.479879    0.088381
     17          6           0       -1.885523    0.185049    0.086901
     18          6           0       -2.942603    1.063636    0.086010
     19          6           0       -4.280330    0.525984    0.081210
     20          6           0       -5.445847    1.238022    0.078205
     21          6           0       -6.738480    0.618778    0.069986
     22          6           0       -7.970980    1.218816    0.064016
     23          6           0       -9.147699    0.368486    0.051926
     24          6           0      -10.434641    0.808636    0.027911
     25          6           0      -11.699193    0.069112   -0.020539
     26          6           0      -11.734248   -1.463299    0.197935
     27          6           0       11.014600    1.853868    1.513234
     28          6           0       11.087577    2.209256   -0.996377
     29          6           0       12.878927   -2.293643   -0.398885
     30          6           0      -13.193238   -1.965187    0.357525
     31          6           0      -14.150237   -1.366308   -0.666817
     32          6           0      -14.197934    0.145875   -0.469969
     33          6           0      -12.839889    0.781111   -0.265939
     34          6           0      -11.014576   -1.853870    1.513220
     35          6           0      -11.087582   -2.209257   -0.996389
     36          6           0      -12.878932    2.293635   -0.398883
     37          6           0       -8.156563    2.717180    0.068498
     38          6           0       -2.769507    2.564242    0.088788
     39          6           0        2.769504   -2.564233    0.088790
     40          6           0        8.156557   -2.717177    0.068503
     41          1           0       13.552240    1.704444    1.363722
     42          1           0       13.191791    3.061587    0.302962
     43          1           0       15.153148    1.798268   -0.563053
     44          1           0       13.813091    1.597755   -1.685187
     45          1           0       14.836732   -0.392637    0.395545
     46          1           0       14.685170   -0.631298   -1.328645
     47          1           0       10.553209   -1.886254   -0.000126
     48          1           0        8.931571    0.694424    0.048253
     49          1           0        6.727188    0.472294    0.066595
     50          1           0        5.394190   -2.323329    0.080545
     51          1           0        4.354073    0.562407    0.078511
     52          1           0        2.136434    0.876729    0.085263
     53          1           0        0.172471   -1.521700    0.088524
     54          1           0       -0.172472    1.521709    0.088521
     55          1           0       -2.136435   -0.876720    0.085267
     56          1           0       -4.354074   -0.562400    0.078514
     57          1           0       -5.394193    2.323335    0.080538
     58          1           0       -6.727188   -0.472289    0.066588
     59          1           0       -8.931568   -0.694423    0.048240
     60          1           0      -10.553213    1.886252   -0.000123
     61          1           0       11.416560    1.280584    2.356412
     62          1           0       11.183965    2.918133    1.720013
     63          1           0        9.936160    1.690871    1.488587
     64          1           0       10.062275    1.884980   -1.187807
     65          1           0       11.067226    3.288779   -0.800274
     66          1           0       11.653135    2.045583   -1.919919
     67          1           0       13.913764   -2.648960   -0.350635
     68          1           0       12.324510   -2.809583    0.392139
     69          1           0       12.468777   -2.633235   -1.360075
     70          1           0      -13.191780   -3.061594    0.302976
     71          1           0      -13.552222   -1.704450    1.363737
     72          1           0      -15.153149   -1.798281   -0.563022
     73          1           0      -13.813104   -1.597768   -1.685170
     74          1           0      -14.836727    0.392627    0.395567
     75          1           0      -14.685183    0.631285   -1.328625
     76          1           0      -11.183932   -2.918136    1.719999
     77          1           0       -9.936137   -1.690867    1.488558
     78          1           0      -11.416527   -1.280589    2.356403
     79          1           0      -10.062283   -1.884978   -1.187830
     80          1           0      -11.067226   -3.288781   -0.800288
     81          1           0      -11.653150   -2.045585   -1.919926
     82          1           0      -13.913771    2.648951   -0.350639
     83          1           0      -12.324521    2.809577    0.392144
     84          1           0      -12.468777    2.633229   -1.360071
     85          1           0       -8.744087    3.036457    0.938730
     86          1           0       -7.209146    3.257946    0.093047
     87          1           0       -8.704221    3.047232   -0.823677
     88          1           0       -3.248036    3.011075    0.969534
     89          1           0       -1.721470    2.868026    0.092705
     90          1           0       -3.242385    3.013831   -0.793611
     91          1           0        3.242396   -3.013825   -0.793600
     92          1           0        3.248019   -3.011063    0.969546
     93          1           0        1.721466   -2.868016    0.092692
     94          1           0        7.209140   -3.257941    0.093061
     95          1           0        8.704208   -3.047230   -0.823677
     96          1           0        8.744089   -3.036455    0.938730
 ---------------------------------------------------------------------

 SCF Done:  E(RwB97XD) =  -1557.96510940     A.U. after   13 cycles

 Excitation energies and oscillator strengths:

 Excited State   1:      Singlet-A      2.3586 eV  525.66 nm  f=4.6493  <S**2>=0.000
     147 -> 150        0.20081
     148 -> 149        0.66233
 This state for optimization and/or second-order correction.
 Total Energy, E(TD-HF/TD-DFT) =  -1557.87843168
 Copying the excited state density for this state as the 1-particle RhoCI density.

 Excited State   2:      Singlet-A      3.3079 eV  374.81 nm  f=0.0027  <S**2>=0.000
     146 -> 150        0.14600
     147 -> 149        0.54282
     147 -> 151       -0.11257
     148 -> 150        0.39241

 Excited State   3:      Singlet-A      3.9958 eV  310.29 nm  f=0.0002  <S**2>=0.000
     146 -> 150       -0.15323
     146 -> 152       -0.10100
     147 -> 149       -0.35961
     147 -> 151       -0.19866
     148 -> 150        0.51884

 Excited State   4:      Singlet-A      4.0572 eV  305.59 nm  f=0.4270  <S**2>=0.000
     145 -> 150        0.11667
     146 -> 149        0.50433
     147 -> 150        0.36741
     148 -> 151       -0.25529

 Excited State   5:      Singlet-A      4.6169 eV  268.54 nm  f=0.1242  <S**2>=0.000
     145 -> 150        0.13269
     146 -> 149        0.34959
     147 -> 150       -0.17610
     147 -> 152        0.17212
     148 -> 151        0.49856

 Excited State   6:      Singlet-A      4.7544 eV  260.78 nm  f=0.0051  <S**2>=0.000
     144 -> 150        0.14094
     145 -> 149        0.48662
     145 -> 151       -0.10037
     146 -> 150        0.36033
     147 -> 151       -0.23782
     148 -> 152       -0.13940

 Excited State   7:      Singlet-A      5.2444 eV  236.41 nm  f=0.0440  <S**2>=0.000
     143 -> 150        0.11493
     144 -> 149        0.50872
     145 -> 150        0.34342
     146 -> 151       -0.23596
     147 -> 152       -0.10209

 Excited State   8:      Singlet-A      5.2635 eV  235.55 nm  f=0.0017  <S**2>=0.000
     144 -> 150        0.13719
     145 -> 149        0.29162
     147 -> 151        0.30322
     147 -> 153       -0.15917
     148 -> 152        0.46402

 Excited State   9:      Singlet-A      5.4192 eV  228.79 nm  f=0.0861  <S**2>=0.000
     145 -> 150       -0.10515
     146 -> 149       -0.20803
     146 -> 151       -0.16445
     147 -> 150        0.47607
     147 -> 152        0.11446
     148 -> 149       -0.22653
     148 -> 151        0.31871

 Excited State  10:      Singlet-A      5.7814 eV  214.45 nm  f=0.0016  <S**2>=0.000
     137 -> 149        0.12521
     141 -> 149        0.12029
     143 -> 149        0.50654
     144 -> 150        0.32467
     145 -> 151       -0.19486
     146 -> 152       -0.11245

 Excited State  11:      Singlet-A      5.7856 eV  214.30 nm  f=0.0494  <S**2>=0.000
     144 -> 149       -0.19671
     146 -> 151       -0.20804
     147 -> 152       -0.34824
     147 -> 156        0.10672
     147 -> 158       -0.10280
     148 -> 153        0.45195

 Excited State  12:      Singlet-A      6.0036 eV  206.51 nm  f=0.0000  <S**2>=0.000
     142 -> 150        0.11561
     144 -> 152       -0.10078
     145 -> 149       -0.26455
     145 -> 151       -0.17048
     146 -> 150        0.42660
     147 -> 149       -0.23303
     148 -> 152        0.27472

 Excited State  13:      Singlet-A      6.0070 eV  206.40 nm  f=0.0012  <S**2>=0.000
     132 -> 150       -0.11664
     133 -> 149       -0.12140
     141 -> 150       -0.35264
     141 -> 152        0.13408
     142 -> 149        0.40860
     142 -> 151       -0.27420
     143 -> 150        0.17044

 Excited State  14:      Singlet-A      6.0173 eV  206.05 nm  f=0.0000  <S**2>=0.000
     132 -> 149        0.12107
     133 -> 150        0.10698
     141 -> 149        0.39627
     141 -> 151       -0.23216
     142 -> 150       -0.37063
     142 -> 152        0.14006
     143 -> 151        0.12334
     146 -> 150        0.12735

 Excited State  15:      Singlet-A      6.2112 eV  199.61 nm  f=0.0029  <S**2>=0.000
     137 -> 149       -0.12586
     143 -> 149       -0.11150
     145 -> 151       -0.16659
     146 -> 152       -0.22528
     147 -> 153        0.31915
     147 -> 163       -0.14993
     148 -> 156        0.30352
     148 -> 158       -0.29678

 Excited State  16:      Singlet-A      6.2873 eV  197.20 nm  f=0.0013  <S**2>=0.000
     146 -> 155        0.20651
     147 -> 154        0.37552
     147 -> 156        0.12120
     148 -> 155        0.42310
     148 -> 157        0.22271

 Excited State  17:      Singlet-A      6.2939 eV  196.99 nm  f=0.0216  <S**2>=0.000
     146 -> 154        0.21378
     147 -> 155        0.38858
     147 -> 157        0.11809
     148 -> 154        0.41342
     148 -> 156        0.20473

 Excited State  18:      Singlet-A      6.3297 eV  195.88 nm  f=0.0001  <S**2>=0.000
     146 -> 150        0.17114
     146 -> 152        0.19315
     147 -> 149       -0.10616
     147 -> 151        0.46670
     147 -> 153        0.10553
     148 -> 150        0.26176
     148 -> 152       -0.28696

 Excited State  19:      Singlet-A      6.3596 eV  194.95 nm  f=0.0024  <S**2>=0.000
     130 -> 150       -0.14926
     131 -> 149        0.43681
     131 -> 151        0.10867
     133 -> 149        0.30544
     138 -> 149        0.10234
     140 -> 149        0.16135
     143 -> 150        0.11021

 Excited State  20:      Singlet-A      6.4037 eV  193.61 nm  f=0.0159  <S**2>=0.000
     131 -> 149       -0.19877
     134 -> 149       -0.11952
     136 -> 149        0.11640
     137 -> 150       -0.13504
     138 -> 149        0.29160
     140 -> 149        0.21697
     141 -> 150        0.13690
     143 -> 150        0.20299
     144 -> 151       -0.21940
     145 -> 152       -0.14695
     148 -> 163       -0.12147

 Excited State  21:      Singlet-A      6.4519 eV  192.17 nm  f=0.0001  <S**2>=0.000
     146 -> 159       -0.10977
     147 -> 154       -0.11362
     147 -> 156        0.11194
     147 -> 162        0.14162
     147 -> 168       -0.10726
     148 -> 157        0.37858
     148 -> 159        0.29660
     148 -> 161       -0.24428
     148 -> 163       -0.17770
     148 -> 166        0.14016

 Excited State  22:      Singlet-A      6.4685 eV  191.67 nm  f=0.0145  <S**2>=0.000
     134 -> 149       -0.15255
     138 -> 149        0.13067
     146 -> 153       -0.11613
     146 -> 163       -0.11467
     146 -> 167        0.10722
     147 -> 156       -0.12250
     147 -> 158        0.14457
     148 -> 159        0.11511
     148 -> 161       -0.13554
     148 -> 163        0.48314

 Excited State  23:      Singlet-A      6.4693 eV  191.65 nm  f=0.0000  <S**2>=0.000
     122 -> 149        0.10933
     129 -> 149        0.11973
     130 -> 149        0.42838
     131 -> 150       -0.14382
     132 -> 149       -0.24674
     133 -> 150       -0.16158
     139 -> 149       -0.16550
     140 -> 150       -0.15946

 Excited State  24:      Singlet-A      6.5555 eV  189.13 nm  f=0.0000  <S**2>=0.000
     129 -> 149        0.10113
     130 -> 149       -0.17598
     135 -> 149       -0.21765
     137 -> 149        0.31098
     138 -> 150       -0.20338
     139 -> 149       -0.14415
     140 -> 150       -0.19821
     143 -> 151        0.13649
     148 -> 156        0.15789
     148 -> 169       -0.12629

 Excited State  25:      Singlet-A      6.5678 eV  188.78 nm  f=0.0192  <S**2>=0.000
     143 -> 150       -0.12969
     144 -> 149       -0.26854
     145 -> 150        0.29594
     146 -> 149       -0.17313
     146 -> 151       -0.20468
     147 -> 156       -0.14370
     147 -> 158        0.12984
     147 -> 165       -0.11279
     148 -> 153       -0.20885
     148 -> 164       -0.16342
     148 -> 167        0.16821

 Excited State  26:      Singlet-A      6.5809 eV  188.40 nm  f=0.0054  <S**2>=0.000
     147 -> 157        0.25476
     147 -> 161       -0.17918
     147 -> 170        0.13861
     148 -> 156        0.21252
     148 -> 158        0.32838
     148 -> 162        0.31991
     148 -> 168       -0.15183

 Excited State  27:      Singlet-A      6.6202 eV  187.28 nm  f=0.0007  <S**2>=0.000
     126 -> 149        0.12537
     128 -> 149        0.15916
     134 -> 149       -0.12326
     138 -> 149        0.10316
     144 -> 149        0.15249
     145 -> 150       -0.17051
     146 -> 149        0.10132
     147 -> 169        0.16303
     148 -> 153        0.11319
     148 -> 164       -0.16555
     148 -> 167        0.37890

 Excited State  28:      Singlet-A      6.6260 eV  187.12 nm  f=0.0003  <S**2>=0.000
     121 -> 149        0.10664
     126 -> 149        0.22594
     128 -> 149        0.29334
     130 -> 150        0.15047
     132 -> 150       -0.14208
     133 -> 149       -0.14215
     138 -> 149        0.11899
     139 -> 150       -0.14323
     140 -> 149       -0.11148
     148 -> 164        0.13477
     148 -> 167       -0.23344

 Excited State  29:      Singlet-A      6.6799 eV  185.61 nm  f=0.0000  <S**2>=0.000
     129 -> 149        0.17326
     139 -> 149        0.10473
     140 -> 150        0.11504
     147 -> 161        0.17394
     147 -> 164        0.13335
     147 -> 167       -0.13598
     148 -> 160        0.31256
     148 -> 165        0.17517
     148 -> 168        0.12074
     148 -> 169       -0.30557

 Excited State  30:      Singlet-A      6.7008 eV  185.03 nm  f=0.0004  <S**2>=0.000
     129 -> 149       -0.13809
     139 -> 149       -0.15450
     139 -> 151        0.11561
     140 -> 150       -0.15292
     147 -> 161        0.15822
     147 -> 164       -0.11610
     147 -> 167        0.10031
     148 -> 160        0.34568
     148 -> 165       -0.12130
     148 -> 168        0.20440
     148 -> 169        0.20282

 Excited State  31:      Singlet-A      6.7124 eV  184.71 nm  f=0.0015  <S**2>=0.000
     145 -> 154       -0.10682
     146 -> 155       -0.13608
     147 -> 160        0.28595
     147 -> 168        0.10442
     148 -> 157        0.12255
     148 -> 159        0.29565
     148 -> 161        0.33596
     148 -> 166       -0.17260
     148 -> 170       -0.17290

 Excited State  32:      Singlet-A      6.7396 eV  183.96 nm  f=0.0000  <S**2>=0.000
     119 -> 150       -0.10164
     121 -> 149        0.16986
     128 -> 149        0.12262
     132 -> 150       -0.15764
     133 -> 149       -0.19439
     138 -> 149       -0.19483
     138 -> 151        0.10129
     139 -> 150        0.30791
     139 -> 152       -0.13603
     140 -> 149        0.26440
     140 -> 151       -0.20552

 Excited State  33:      Singlet-A      6.7458 eV  183.80 nm  f=0.0000  <S**2>=0.000
     122 -> 149        0.12592
     135 -> 149       -0.10178
     137 -> 149        0.19726
     138 -> 150       -0.26450
     139 -> 149        0.27249
     139 -> 151       -0.20434
     140 -> 150        0.18484
     140 -> 152       -0.10767
     147 -> 164       -0.13985
     148 -> 165       -0.15358
     148 -> 169        0.15719

 Excited State  34:      Singlet-A      6.7509 eV  183.66 nm  f=0.0007  <S**2>=0.000
     146 -> 157       -0.11958
     146 -> 161        0.10415
     146 -> 166       -0.12059
     147 -> 156       -0.16383
     147 -> 158       -0.19170
     147 -> 162       -0.11455
     148 -> 157       -0.21410
     148 -> 159        0.18901
     148 -> 164        0.11047
     148 -> 166        0.39748
     148 -> 170       -0.20242

 Excited State  35:      Singlet-A      6.8332 eV  181.44 nm  f=0.0000  <S**2>=0.000
     118 -> 149       -0.12070
     119 -> 149        0.16171
     122 -> 149        0.32266
     127 -> 149       -0.22032
     128 -> 150       -0.20014
     131 -> 150       -0.13964
     132 -> 149        0.24957
     132 -> 151       -0.14007
     133 -> 150        0.19387

 Excited State  36:      Singlet-A      6.8902 eV  179.94 nm  f=0.0125  <S**2>=0.000
     129 -> 150        0.12452
     134 -> 149        0.29750
     135 -> 150        0.10528
     137 -> 150       -0.20570
     138 -> 149        0.11211
     138 -> 151       -0.12004
     143 -> 150       -0.10222
     144 -> 151        0.13732
     145 -> 152        0.11376
     146 -> 153       -0.14463
     146 -> 164        0.11836
     147 -> 156       -0.10929
     147 -> 158        0.11765
     147 -> 165        0.20352
     147 -> 171        0.11775
     148 -> 164        0.17158
     148 -> 167        0.13116
     148 -> 172        0.11672

 Excited State  37:      Singlet-A      6.9347 eV  178.79 nm  f=0.0037  <S**2>=0.000
     143 -> 149        0.21683
     143 -> 151        0.12678
     144 -> 150       -0.21129
     144 -> 152        0.14680
     145 -> 149        0.14431
     145 -> 151        0.19924
     145 -> 153       -0.14233
     146 -> 152        0.10895
     146 -> 156       -0.10294
     147 -> 164        0.12295
     147 -> 167        0.12778
     148 -> 156        0.12942
     148 -> 158       -0.15394
     148 -> 165        0.13995
     148 -> 169        0.27494
     148 -> 171        0.11070

 Excited State  38:      Singlet-A      6.9919 eV  177.32 nm  f=0.1574  <S**2>=0.000
     120 -> 149       -0.14186
     145 -> 150        0.25248
     145 -> 152        0.11780
     146 -> 149       -0.13973
     146 -> 151        0.25870
     146 -> 153       -0.13890
     147 -> 150        0.11071
     147 -> 152        0.22581
     147 -> 165        0.10828
     148 -> 151       -0.13424
     148 -> 153        0.22890
     148 -> 164        0.10136

 Excited State  39:      Singlet-A      7.0104 eV  176.86 nm  f=0.0144  <S**2>=0.000
     107 -> 149        0.10267
     113 -> 149       -0.11368
     118 -> 150        0.13611
     120 -> 149        0.42229
     121 -> 149       -0.11943
     126 -> 149        0.17110
     127 -> 150       -0.12493
     131 -> 149       -0.12544
     146 -> 151        0.10840

 Excited State  40:      Singlet-A      7.0201 eV  176.61 nm  f=0.0002  <S**2>=0.000
     144 -> 154        0.11871
     145 -> 155        0.14281
     146 -> 154        0.12690
     146 -> 156       -0.11315
     146 -> 158       -0.14084
     146 -> 160       -0.10631
     147 -> 157       -0.21562
     147 -> 159        0.11076
     147 -> 161       -0.19118
     148 -> 156       -0.12449
     148 -> 158       -0.10300
     148 -> 162        0.35993
     148 -> 168        0.12809
     148 -> 173       -0.12947
     148 -> 175       -0.12274

 Excited State  41:      Singlet-A      7.0388 eV  176.14 nm  f=0.0009  <S**2>=0.000
     115 -> 149        0.15607
     117 -> 149       -0.12306
     121 -> 149        0.38512
     122 -> 150        0.11446
     126 -> 149        0.11433
     127 -> 150       -0.13384
     132 -> 150        0.17288
     133 -> 149        0.13398
     133 -> 151       -0.10273

 Excited State  42:      Singlet-A      7.0515 eV  175.83 nm  f=0.0049  <S**2>=0.000
     144 -> 155       -0.10687
     145 -> 154       -0.12668
     146 -> 155       -0.10647
     146 -> 157        0.16669
     146 -> 161        0.13156
     147 -> 156        0.14577
     147 -> 158        0.14517
     147 -> 162       -0.24562
     148 -> 157        0.11538
     148 -> 159       -0.23095
     148 -> 161        0.13781
     148 -> 166        0.27753
     148 -> 174       -0.13046
     148 -> 176       -0.11227

 Excited State  43:      Singlet-A      7.0901 eV  174.87 nm  f=0.0028  <S**2>=0.000
     137 -> 149        0.10446
     138 -> 150       -0.14918
     143 -> 149       -0.18557
     144 -> 150        0.19793
     145 -> 149       -0.14259
     145 -> 151       -0.12123
     146 -> 156       -0.10711
     146 -> 165        0.14706
     147 -> 164        0.22267
     147 -> 167        0.11800
     147 -> 172        0.12119
     148 -> 156       -0.11330
     148 -> 165        0.23950
     148 -> 168       -0.10019
     148 -> 171        0.10654
     148 -> 173        0.11043

 Excited State  44:      Singlet-A      7.1024 eV  174.57 nm  f=0.0572  <S**2>=0.000
     129 -> 150        0.10592
     133 -> 149       -0.13054
     134 -> 149        0.28997
     137 -> 150       -0.18720
     138 -> 151       -0.12549
     146 -> 151        0.11710
     146 -> 164       -0.12733
     147 -> 165       -0.23602
     147 -> 171       -0.11253
     148 -> 153        0.12124
     148 -> 164       -0.22819
     148 -> 172       -0.11067

 Excited State  45:      Singlet-A      7.1198 eV  174.14 nm  f=0.0006  <S**2>=0.000
     146 -> 158        0.10977
     146 -> 160       -0.14443
     147 -> 159       -0.23141
     147 -> 166       -0.13141
     148 -> 160       -0.12004
     148 -> 168        0.31421
     148 -> 173       -0.24971
     148 -> 175        0.12825
     148 -> 177       -0.14381

 Excited State  46:      Singlet-A      7.1547 eV  173.29 nm  f=0.0009  <S**2>=0.000
     118 -> 149        0.37847
     120 -> 150        0.17956
     122 -> 149       -0.17901
     126 -> 150        0.17416
     127 -> 151        0.11283
     130 -> 151       -0.10159
     131 -> 150       -0.17401
     132 -> 149        0.10897

 Excited State  47:      Singlet-A      7.1982 eV  172.24 nm  f=0.0004  <S**2>=0.000
     123 -> 150        0.10253
     129 -> 149        0.47244
     134 -> 150        0.26133
     137 -> 151        0.11967
     148 -> 169        0.16283

 Excited State  48:      Singlet-A      7.2785 eV  170.34 nm  f=0.0444  <S**2>=0.000
     123 -> 149        0.11983
     145 -> 150       -0.13463
     145 -> 152       -0.11903
     146 -> 151       -0.35325
     146 -> 153       -0.17378
     147 -> 150       -0.17397
     147 -> 152        0.37604
     148 -> 151       -0.21585
     148 -> 153        0.13317

 Excited State  49:      Singlet-A      7.2996 eV  169.85 nm  f=0.0018  <S**2>=0.000
     146 -> 159        0.18594
     147 -> 160        0.19149
     147 -> 168       -0.19506
     147 -> 173        0.14135
     148 -> 170        0.32360
     148 -> 174       -0.23243
     148 -> 176        0.19813
     148 -> 178       -0.21258

 Excited State  50:      Singlet-A      7.3066 eV  169.69 nm  f=0.0004  <S**2>=0.000
     110 -> 149        0.11488
     116 -> 149       -0.19796
     119 -> 149        0.39992
     120 -> 150        0.12871
     121 -> 150       -0.21984
     132 -> 149       -0.10082
     132 -> 151        0.10027
     133 -> 150       -0.14486
     142 -> 152        0.11010

 Excited State  51:      Singlet-A      7.3460 eV  168.78 nm  f=0.0176  <S**2>=0.000
     123 -> 149        0.56179
     123 -> 151        0.12477
     129 -> 150        0.20267
     148 -> 167        0.12561

 Excited State  52:      Singlet-A      7.4167 eV  167.17 nm  f=0.0119  <S**2>=0.000
     113 -> 149       -0.13579
     115 -> 149        0.10365
     122 -> 150        0.11832
     134 -> 149        0.14551
     135 -> 150        0.26740
     135 -> 152       -0.11511
     136 -> 149        0.33328
     136 -> 151       -0.22235
     137 -> 150        0.18226
     138 -> 149       -0.15130

 Excited State  53:      Singlet-A      7.4365 eV  166.72 nm  f=0.0000  <S**2>=0.000
     135 -> 149        0.35642
     135 -> 151       -0.21283
     136 -> 150        0.34921
     136 -> 152       -0.12594
     137 -> 149        0.23467
     137 -> 151       -0.11970
     144 -> 150       -0.10373

 Excited State  54:      Singlet-A      7.4837 eV  165.67 nm  f=0.0107  <S**2>=0.000
     113 -> 149        0.22724
     115 -> 149       -0.15179
     120 -> 149       -0.11437
     122 -> 150       -0.14182
     126 -> 151       -0.11729
     134 -> 149        0.13778
     138 -> 149       -0.18597
     143 -> 150        0.13549
     144 -> 151       -0.15616
     145 -> 152       -0.15741
     148 -> 163        0.14338

 Excited State  55:      Singlet-A      7.5158 eV  164.96 nm  f=0.0108  <S**2>=0.000
     113 -> 149        0.16813
     115 -> 149       -0.11511
     123 -> 149        0.11441
     135 -> 150        0.20186
     136 -> 149        0.27921
     136 -> 151       -0.10243
     140 -> 149        0.11883
     143 -> 150       -0.14544
     144 -> 151        0.15162
     145 -> 150        0.10212
     145 -> 152        0.14551
     148 -> 163       -0.13438

 Excited State  56:      Singlet-A      7.5331 eV  164.59 nm  f=0.0004  <S**2>=0.000
     143 -> 151       -0.13784

 The electronic state is 1-A.
 Alpha  occ. eigenvalues --  -10.30081 -10.30081 -10.29917 -10.29917 -10.29524
 Alpha  occ. eigenvalues --  -10.29524 -10.29327 -10.29327 -10.28876 -10.28806
 Alpha  occ. eigenvalues --  -10.28647 -10.28646 -10.28514 -10.28514 -10.28510
 Alpha  occ. eigenvalues --  -10.28509 -10.28396 -10.28396 -10.28222 -10.28222
 Alpha  occ. eigenvalues --  -10.28181 -10.28181 -10.27893 -10.27893 -10.27412
 Alpha  occ. eigenvalues --  -10.27412 -10.27188 -10.27188 -10.27116 -10.27116
 Alpha  occ. eigenvalues --  -10.26921 -10.26921 -10.26691 -10.26691 -10.26576
 Alpha  occ. eigenvalues --  -10.26576 -10.26024 -10.26024 -10.25996 -10.25996
 Alpha  occ. eigenvalues --   -0.94843  -0.94839  -0.93912  -0.93365  -0.92360
 Alpha  occ. eigenvalues --   -0.91720  -0.89228  -0.88161  -0.88143  -0.87590
 Alpha  occ. eigenvalues --   -0.86836  -0.85321  -0.84175  -0.81853  -0.81493
 Alpha  occ. eigenvalues --   -0.79898  -0.78252  -0.78231  -0.77687  -0.77449
 Alpha  occ. eigenvalues --   -0.77315  -0.77310  -0.76397  -0.76345  -0.76038
 Alpha  occ. eigenvalues --   -0.73009  -0.70875  -0.69294  -0.67883  -0.66061
 Alpha  occ. eigenvalues --   -0.65109  -0.65109  -0.63919  -0.63537  -0.62399
 Alpha  occ. eigenvalues --   -0.62025  -0.61305  -0.60153  -0.58967  -0.58541
 Alpha  occ. eigenvalues --   -0.57098  -0.56237  -0.55972  -0.55589  -0.55171
 Alpha  occ. eigenvalues --   -0.54622  -0.53348  -0.53024  -0.52690  -0.52498
 Alpha  occ. eigenvalues --   -0.51521  -0.51198  -0.50618  -0.50424  -0.50348
 Alpha  occ. eigenvalues --   -0.50341  -0.50194  -0.50098  -0.49821  -0.49778
 Alpha  occ. eigenvalues --   -0.49709  -0.49652  -0.48295  -0.48244  -0.48103
 Alpha  occ. eigenvalues --   -0.48002  -0.47385  -0.46781  -0.46708  -0.46641
 Alpha  occ. eigenvalues --   -0.46425  -0.46419  -0.45627  -0.45309  -0.44951
 Alpha  occ. eigenvalues --   -0.44480  -0.44390  -0.44198  -0.43986  -0.43848
 Alpha  occ. eigenvalues --   -0.43385  -0.42831  -0.42804  -0.42570  -0.42558
 Alpha  occ. eigenvalues --   -0.42339  -0.42096  -0.41913  -0.41657  -0.41522
 Alpha  occ. eigenvalues --   -0.41278  -0.41134  -0.41117  -0.41078  -0.39464
 Alpha  occ. eigenvalues --   -0.39311  -0.38728  -0.38275  -0.37876  -0.37780
 Alpha  occ. eigenvalues --   -0.36420  -0.36373  -0.36047  -0.33412  -0.31267
 Alpha  occ. eigenvalues --   -0.28426  -0.25507  -0.22570
 Alpha virt. eigenvalues --   -0.03774   0.00229   0.03700   0.07229   0.09966
 Alpha virt. eigenvalues --    0.10952   0.10959   0.12079   0.12137   0.12364
 Alpha virt. eigenvalues --    0.13071   0.13202   0.13260   0.13522   0.13628

 Mulliken charges:
               1
     1  C   -0.246419
     2  C   -0.213087
     3  C   -0.202477
     4  C    0.041083
     5  C   -0.153350
     6  C    0.203625
     7  C   -0.153993
     8  C   -0.245099
     9  C    0.050070
    10  C   -0.222345
    11  C   -0.130884
    12  C   -0.262410
    13  C    0.084793
    14  C   -0.193633
    15  C   -0.174308
    16  C   -0.174309
    17  C   -0.193633
    18  C    0.084792
    19  C   -0.262409
    20  C   -0.130885
    21  C   -0.222345
    22  C    0.050068
    23  C   -0.245098
    24  C   -0.153993
    25  C   -0.153351
    26  C    0.203626
    27  C   -0.442428
    28  C   -0.461994
    29  C   -0.453016
    30  C   -0.246419
    31  C   -0.213087
    32  C   -0.202477
    33  C    0.041083
    34  C   -0.442427
    35  C   -0.461995
    36  C   -0.453017
    37  C   -0.418743
    38  C   -0.417785
    39  C   -0.417785
    40  C   -0.418743
    41  H    0.111724
    42  H    0.126760
    43  H    0.121376
    44  H    0.110573
    45  H    0.129158
    46  H    0.137813
    47  H    0.162886
    48  H    0.155858
    49  H    0.148899
    50  H    0.169477
    51  H    0.152265
    52  H    0.153633
    53  H    0.150115
    54  H    0.150115
    55  H    0.153632
    56  H    0.152266
    57  H    0.169478
    58  H    0.148899
    59  H    0.155859
    60  H    0.162886
    61  H    0.137525
    62  H    0.137603
    63  H    0.134801
    64  H    0.137029
    65  H    0.135642
    66  H    0.135318
    67  H    0.153116
    68  H    0.149280
    69  H    0.158520
    70  H    0.126760
    71  H    0.111724
    72  H    0.121376
    73  H    0.110573
    74  H    0.129158
    75  H    0.137813
    76  H    0.137603
    77  H    0.134801
    78  H    0.137525
    79  H    0.137030
    80  H    0.135641
    81  H    0.135318
    82  H    0.153115
    83  H    0.149280
    84  H    0.158520
    85  H    0.150293
    86  H    0.150186
    87  H    0.150524
    88  H    0.150915
    89  H    0.150256
    90  H    0.150856
    91  H    0.150855
    92  H    0.150916
    93  H    0.150256
    94  H    0.150187
    95  H    0.150524
    96  H    0.150293
 Sum of Mulliken charges =  -0.00000

 Dipole moment (field-independent basis, Debye):
    X=              0.0000    Y=             -0.0000    Z=             -0.5300  Tot=              0.5300
 Quadrupole moment (field-independent basis, Debye-Ang):
   XX=           -153.2520   YY=           -224.6740   ZZ=           -261.9860
   XY=            -16.2442   XZ=             -0.0002   YZ=              0.0000

 Normal termination of Gaussian 16 at Mon Nov  6 06:58:43 2023.
