 Gaussian 16, Revision C.02,
 Gaussian 16:  ES64L-G16RevC.02  7-Dec-2021

 -------------------------------------------------------------
 # td=(nstates=150) wB97XD/def2TZVP scrf(smd, solvent=ethanol)
 -------------------------------------------------------------

 ---
 A-4
 ---
 Symbolic Z-matrix:
 Charge =  1 Multiplicity = 1

                         Standard orientation:
 ---------------------------------------------------------------------
 Center     Atomic      Atomic             Coordinates (Angstroms)
 Number     Number       Type             X           Y           Z
 ---------------------------------------------------------------------
      1          6           0       -3.663712   -1.051948   -0.111557
      2          6           0       -2.389638   -0.479979   -0.083458
      3          6           0       -1.194967   -1.195004   -0.064041
      4          6           0        0.058349   -0.578322   -0.035613
      5          6           0       -4.855344   -0.323764   -0.124892
      6         16           0       -4.926662    1.436711   -0.060618
      7          6           0       -6.688233    1.402029   -0.083292
      8          6           0       -7.154955    0.079357   -0.139452
      9          7           0       -6.111858   -0.857268   -0.183590
     10          6           0       -7.565153    2.482703   -0.048916
     11          6           0       -8.934956    2.220220   -0.065794
     12          6           0       -9.407072    0.902760   -0.113224
     13          6           0       -8.529361   -0.179533   -0.148820
     14          6           0       -6.366284   -2.306872   -0.248314
     15          6           0       -6.467137   -2.955883    1.133259
     16          6           0        1.282162   -1.246091   -0.016052
     17          6           0        2.511127   -0.582889    0.011938
     18          6           0        3.741215   -1.244345   -0.008435
     19          6           0        5.052439   -0.749020    0.008808
     20         16           0        6.362590   -1.866987   -0.365292
     21          6           0        7.562983   -0.600806   -0.165520
     22          6           0        6.941017    0.612357    0.169846
     23          7           0        5.544832    0.495298    0.283261
     24          6           0        8.946272   -0.695535   -0.302110
     25          6           0        9.708364    0.454142   -0.100703
     26          6           0        9.092982    1.668657    0.228770
     27          6           0        7.709445    1.764545    0.366500
     28          6           0        4.732809    1.623027    0.770139
     29          6           0        4.282282    2.569892   -0.344236
     30          1           0       -3.731831   -2.134826   -0.113428
     31          1           0       -2.310249    0.607987   -0.076294
     32          1           0       -1.237617   -2.283434   -0.072611
     33          1           0        0.079156    0.512977   -0.027655
     34          1           0       -7.192939    3.501353   -0.008437
     35          1           0       -9.638205    3.046285   -0.038434
     36          1           0      -10.476042    0.714855   -0.119701
     37          1           0       -8.914544   -1.192671   -0.174894
     38          1           0       -7.289207   -2.442036   -0.816617
     39          1           0       -5.570728   -2.757498   -0.845647
     40          1           0       -6.666359   -4.026758    1.023381
     41          1           0       -5.536643   -2.835556    1.696522
     42          1           0       -7.280055   -2.514652    1.717995
     43          1           0        1.279871   -2.335280   -0.024232
     44          1           0        2.472390    0.502280    0.013643
     45          1           0        3.691082   -2.326769   -0.105404
     46          1           0        9.416627   -1.639291   -0.558710
     47          1           0       10.787594    0.405440   -0.203502
     48          1           0        9.700309    2.555856    0.377290
     49          1           0        7.251286    2.716142    0.611187
     50          1           0        3.887111    1.202637    1.316886
     51          1           0        5.342782    2.154926    1.505154
     52          1           0        3.668719    2.054906   -1.089954
     53          1           0        3.692500    3.387191    0.083941
     54          1           0        5.141488    3.005946   -0.862588
 ---------------------------------------------------------------------

 SCF Done:  E(RwB97XD) =  -1873.49398478     A.U. after   17 cycles

 Excitation energies and oscillator strengths:

 Excited State   1:      Singlet-A      2.0146 eV  615.44 nm  f=2.8174  <S**2>=0.000
     109 -> 112        0.14230
     110 -> 111        0.68611
 This state for optimization and/or second-order correction.
 Total Energy, E(TD-HF/TD-DFT) =  -1873.41995133
 Copying the excited state density for this state as the 1-particle RhoCI density.

 Excited State   2:      Singlet-A      3.7581 eV  329.91 nm  f=0.0797  <S**2>=0.000
     109 -> 111        0.58246
     110 -> 112        0.35498

 Excited State   3:      Singlet-A      4.3333 eV  286.12 nm  f=0.0422  <S**2>=0.000
     109 -> 111       -0.34881
     110 -> 112        0.57779

 Excited State   4:      Singlet-A      4.5859 eV  270.36 nm  f=0.0136  <S**2>=0.000
     106 -> 111       -0.12730
     107 -> 111       -0.10542
     108 -> 111        0.45792
     108 -> 112       -0.21670
     108 -> 115        0.10113
     109 -> 114       -0.18965
     110 -> 113        0.23941
     110 -> 114        0.21356

 Excited State   5:      Singlet-A      4.6216 eV  268.27 nm  f=0.0120  <S**2>=0.000
     107 -> 111        0.51145
     107 -> 112        0.22632
     107 -> 115        0.10397
     108 -> 111        0.10146
     109 -> 113       -0.17989
     110 -> 113       -0.16893
     110 -> 114        0.22922

 Excited State   6:      Singlet-A      4.7098 eV  263.25 nm  f=0.0021  <S**2>=0.000
     107 -> 116       -0.14313
     109 -> 116        0.31278
     110 -> 116        0.57404

 Excited State   7:      Singlet-A      4.7214 eV  262.60 nm  f=0.0002  <S**2>=0.000
     108 -> 118        0.14606
     109 -> 118       -0.30853
     110 -> 118        0.59376

 Excited State   8:      Singlet-A      4.8588 eV  255.17 nm  f=0.0223  <S**2>=0.000
     105 -> 112        0.10067
     106 -> 111        0.44936
     107 -> 111       -0.18907
     107 -> 113       -0.10525
     108 -> 111        0.16007
     109 -> 112       -0.22781
     110 -> 113       -0.13879
     110 -> 115       -0.24843

 Excited State   9:      Singlet-A      4.8838 eV  253.87 nm  f=0.1081  <S**2>=0.000
     106 -> 111        0.12119
     108 -> 111       -0.36108
     108 -> 112        0.10515
     109 -> 113       -0.16989
     109 -> 114       -0.17211
     110 -> 113        0.20977
     110 -> 114        0.38542
     110 -> 117        0.10284

 Excited State  10:      Singlet-A      4.9719 eV  249.37 nm  f=0.1001  <S**2>=0.000
     106 -> 111        0.26545
     106 -> 113       -0.10437
     107 -> 111        0.28422
     109 -> 113        0.17039
     109 -> 114       -0.18033
     110 -> 113        0.40246
     110 -> 114       -0.19691

 Excited State  11:      Singlet-A      5.2517 eV  236.08 nm  f=0.0423  <S**2>=0.000
     106 -> 111        0.29728
     107 -> 111       -0.10832
     107 -> 113        0.12655
     109 -> 115        0.16788
     109 -> 117       -0.15830
     110 -> 115        0.46726
     110 -> 117       -0.15413

 Excited State  12:      Singlet-A      5.3120 eV  233.40 nm  f=0.0268  <S**2>=0.000
     105 -> 111        0.17213
     106 -> 111        0.14794
     106 -> 112        0.11564
     108 -> 111        0.13178
     108 -> 113       -0.10874
     108 -> 114       -0.16297
     109 -> 115       -0.20168
     109 -> 117       -0.14168
     110 -> 114       -0.19404
     110 -> 115        0.18085
     110 -> 117        0.43159

 Excited State  13:      Singlet-A      5.6726 eV  218.57 nm  f=0.0072  <S**2>=0.000
     105 -> 111        0.54122
     106 -> 112        0.14955
     110 -> 117       -0.29479

 Excited State  14:      Singlet-A      5.8023 eV  213.68 nm  f=0.1528  <S**2>=0.000
     105 -> 112       -0.12840
     107 -> 113        0.16983
     107 -> 114       -0.13537
     108 -> 113       -0.14064
     108 -> 114       -0.19790
     109 -> 112       -0.19947
     109 -> 117       -0.13526
     110 -> 113       -0.17512
     110 -> 119        0.43339

 Excited State  15:      Singlet-A      5.9415 eV  208.68 nm  f=0.3070  <S**2>=0.000
     106 -> 111        0.16056
     107 -> 113        0.20535
     107 -> 114       -0.16641
     107 -> 115       -0.12374
     108 -> 113       -0.10431
     108 -> 114       -0.15200
     109 -> 112        0.33123
     109 -> 117        0.14079
     110 -> 113       -0.16410
     110 -> 115       -0.25972
     110 -> 119       -0.21020

 Excited State  16:      Singlet-A      6.0101 eV  206.29 nm  f=0.1384  <S**2>=0.000
     105 -> 111        0.25001
     106 -> 114        0.11579
     107 -> 113        0.26067
     107 -> 114       -0.18812
     107 -> 115       -0.11413
     108 -> 113        0.18601
     108 -> 114        0.28227
     108 -> 115       -0.11391
     108 -> 117       -0.12293
     110 -> 114        0.18130
     110 -> 117        0.23230

 Excited State  17:      Singlet-A      6.0630 eV  204.49 nm  f=0.0055  <S**2>=0.000
     103 -> 116        0.19111
     107 -> 116        0.59627
     110 -> 116        0.19273

 Excited State  18:      Singlet-A      6.0928 eV  203.49 nm  f=0.0018  <S**2>=0.000
     104 -> 118        0.18412
     108 -> 118        0.57673
     110 -> 118       -0.20075

 Excited State  19:      Singlet-A      6.1156 eV  202.73 nm  f=0.0302  <S**2>=0.000
     104 -> 111       -0.14720
     105 -> 114        0.10272
     106 -> 113       -0.10115
     106 -> 114       -0.12413
     108 -> 112       -0.16970
     108 -> 113        0.22926
     108 -> 114        0.26720
     108 -> 115        0.20201
     108 -> 117        0.28504
     108 -> 118       -0.19114
     109 -> 114       -0.11161
     110 -> 113       -0.12416
     110 -> 114       -0.14714

 Excited State  20:      Singlet-A      6.1458 eV  201.74 nm  f=0.0063  <S**2>=0.000
     103 -> 111       -0.12048
     105 -> 113        0.11495
     106 -> 113        0.12033
     106 -> 114       -0.11666
     107 -> 111       -0.10129
     107 -> 112        0.20592
     107 -> 113        0.24909
     107 -> 114       -0.14067
     107 -> 115        0.35301
     107 -> 117       -0.22178
     109 -> 112        0.13605
     109 -> 113       -0.10015
     110 -> 113        0.14677
     110 -> 114       -0.12974
     110 -> 119        0.12089

 Excited State  21:      Singlet-A      6.1641 eV  201.14 nm  f=0.1060  <S**2>=0.000
     102 -> 111        0.10756
     107 -> 113       -0.19564
     107 -> 114        0.13837
     108 -> 113        0.13054
     108 -> 114        0.16366
     109 -> 112        0.38228
     110 -> 111       -0.11134
     110 -> 119        0.38983

 Excited State  22:      Singlet-A      6.2887 eV  197.15 nm  f=0.0004  <S**2>=0.000
      94 -> 111        0.10218
      95 -> 111       -0.19342
      96 -> 111        0.37355
      97 -> 111        0.23127
      98 -> 111       -0.18842
      99 -> 111       -0.26649
     101 -> 111        0.30578

 Excited State  23:      Singlet-A      6.3377 eV  195.63 nm  f=0.0148  <S**2>=0.000
     102 -> 111        0.15590
     103 -> 111        0.25436
     103 -> 112        0.10203
     110 -> 122        0.43869
     110 -> 123       -0.30967
     110 -> 124        0.10874

 Excited State  24:      Singlet-A      6.3868 eV  194.12 nm  f=0.0030  <S**2>=0.000
     103 -> 111        0.35284
     103 -> 112        0.17640
     104 -> 111       -0.21907
     109 -> 119        0.12284
     110 -> 120        0.23907
     110 -> 121       -0.22666
     110 -> 123        0.24651
     110 -> 125       -0.11670

 Excited State  25:      Singlet-A      6.4306 eV  192.80 nm  f=0.0618  <S**2>=0.000
     102 -> 111       -0.32996
     103 -> 111       -0.27552
     104 -> 111       -0.20992
     110 -> 122        0.36816

 Excited State  26:      Singlet-A      6.4733 eV  191.53 nm  f=0.0325  <S**2>=0.000
     102 -> 111       -0.14837
     104 -> 111        0.45441
     104 -> 112       -0.20464
     108 -> 111       -0.12486
     110 -> 121       -0.20088
     110 -> 122        0.12918
     110 -> 123        0.24147

 Excited State  27:      Singlet-A      6.4782 eV  191.39 nm  f=0.0022  <S**2>=0.000
      91 -> 111       -0.10017
      95 -> 111        0.11421
     101 -> 111        0.11418
     102 -> 111        0.19717
     103 -> 111       -0.26077
     104 -> 111        0.10066
     110 -> 120        0.36779
     110 -> 124        0.15500
     110 -> 125       -0.17359

 Excited State  28:      Singlet-A      6.4977 eV  190.81 nm  f=0.0196  <S**2>=0.000
      91 -> 111       -0.10133
      98 -> 111        0.10053
     102 -> 111        0.34865
     104 -> 111       -0.13495
     110 -> 120       -0.22970
     110 -> 121       -0.17385
     110 -> 122        0.10293
     110 -> 123        0.21521
     110 -> 125        0.18493

 Excited State  29:      Singlet-A      6.5407 eV  189.56 nm  f=0.0016  <S**2>=0.000
      90 -> 111        0.14811
      91 -> 111       -0.12862
      93 -> 111       -0.16146
      95 -> 111        0.35390
      96 -> 111        0.10527
      98 -> 111        0.26808
     101 -> 111        0.22291
     101 -> 112       -0.10873
     102 -> 111       -0.22461
     103 -> 111        0.13075
     110 -> 120       -0.10013

 Excited State  30:      Singlet-A      6.5905 eV  188.12 nm  f=0.0025  <S**2>=0.000
     109 -> 124       -0.23109
     110 -> 120       -0.11979
     110 -> 124        0.56255
     110 -> 128       -0.12733

 Excited State  31:      Singlet-A      6.6831 eV  185.52 nm  f=0.0115  <S**2>=0.000
     105 -> 116        0.19089
     106 -> 114       -0.10377
     106 -> 116        0.33398
     106 -> 118       -0.11683
     107 -> 116       -0.11854
     109 -> 113       -0.11621
     109 -> 116       -0.28928
     109 -> 118       -0.11293
     110 -> 116        0.15245
     110 -> 120        0.13123
     110 -> 121        0.16547
     110 -> 125        0.12036
     110 -> 127       -0.10009

 Excited State  32:      Singlet-A      6.6985 eV  185.09 nm  f=0.5587  <S**2>=0.000
     105 -> 114       -0.15274
     106 -> 113        0.22713
     106 -> 114        0.19539
     108 -> 112       -0.21045
     108 -> 115        0.22699
     108 -> 117        0.24976
     109 -> 113        0.14379
     109 -> 114        0.30534
     110 -> 113        0.15014
     110 -> 114        0.12693

 Excited State  33:      Singlet-A      6.7099 eV  184.78 nm  f=0.3798  <S**2>=0.000
     105 -> 113       -0.15627
     106 -> 113       -0.22274
     106 -> 114        0.20377
     106 -> 116        0.11639
     107 -> 112        0.19386
     107 -> 115        0.28693
     107 -> 117       -0.13881
     109 -> 113        0.27463
     109 -> 114       -0.14342
     110 -> 113       -0.13654
     110 -> 114        0.12690

 Excited State  34:      Singlet-A      6.7326 eV  184.15 nm  f=0.0273  <S**2>=0.000
     105 -> 118       -0.17246
     106 -> 118        0.35846
     108 -> 118        0.11377
     109 -> 118        0.37604
     110 -> 118        0.19428
     110 -> 120        0.21012
     110 -> 121        0.12072

 Excited State  35:      Singlet-A      6.8118 eV  182.01 nm  f=0.0037  <S**2>=0.000
     106 -> 116       -0.18382
     109 -> 116        0.17118
     109 -> 120        0.14907
     109 -> 125        0.10989
     110 -> 116       -0.12345
     110 -> 121        0.32723
     110 -> 123        0.29972
     110 -> 125        0.15869
     110 -> 126       -0.18117
     110 -> 129       -0.12545

 Excited State  36:      Singlet-A      6.8960 eV  179.79 nm  f=0.0328  <S**2>=0.000
     105 -> 115       -0.15898
     106 -> 112       -0.23064
     106 -> 115       -0.10621
     106 -> 117        0.17167
     109 -> 115        0.28032
     109 -> 123       -0.10546
     110 -> 117        0.14592
     110 -> 121        0.10853
     110 -> 123        0.13424
     110 -> 125       -0.26604
     110 -> 128       -0.15488

 Excited State  37:      Singlet-A      6.9127 eV  179.36 nm  f=0.0195  <S**2>=0.000
     105 -> 115       -0.11048
     106 -> 112       -0.21890
     106 -> 117        0.13676
     109 -> 115        0.20384
     109 -> 116        0.11567
     109 -> 127       -0.11593
     110 -> 117        0.13734
     110 -> 120        0.11405
     110 -> 121       -0.15377
     110 -> 125        0.32795
     110 -> 127        0.12353
     110 -> 128        0.16068

 Excited State  38:      Singlet-A      6.9796 eV  177.64 nm  f=0.0003  <S**2>=0.000
      85 -> 111       -0.14423
      88 -> 111       -0.22190
      89 -> 111       -0.11648
      90 -> 111       -0.14157
      91 -> 111        0.14445
      92 -> 111        0.28228
      93 -> 111        0.16172
      95 -> 111        0.22473
      96 -> 111       -0.11856
      98 -> 111       -0.18799
      98 -> 112       -0.10958
      99 -> 111       -0.12218
     100 -> 111        0.11673
     101 -> 111        0.17249
     101 -> 112       -0.11209

 Excited State  39:      Singlet-A      7.0450 eV  175.99 nm  f=0.1699  <S**2>=0.000
     104 -> 111       -0.11852
     105 -> 112        0.13749
     105 -> 117       -0.18794
     106 -> 115        0.31318
     108 -> 112       -0.10148
     108 -> 114       -0.10192
     109 -> 117        0.33172
     110 -> 115        0.19769
     110 -> 119        0.12695

 Excited State  40:      Singlet-A      7.0680 eV  175.42 nm  f=0.0075  <S**2>=0.000
      86 -> 111        0.17616
      87 -> 111       -0.25295
      90 -> 111        0.18623
      92 -> 111        0.18802
      93 -> 111        0.18633
      94 -> 111        0.17587
      97 -> 111        0.33149
      98 -> 111        0.16020
      99 -> 111        0.13023
     102 -> 112        0.13676

 Excited State  41:      Singlet-A      7.1078 eV  174.43 nm  f=0.0016  <S**2>=0.000
      87 -> 111       -0.15620
      88 -> 111        0.10092
      89 -> 111       -0.13310
      90 -> 111        0.10366
      91 -> 111       -0.15660
      94 -> 111        0.21034
      97 -> 111       -0.20338
      99 -> 111       -0.12698
     100 -> 111        0.39342
     100 -> 112        0.16540
     102 -> 112       -0.11692

 Excited State  42:      Singlet-A      7.1651 eV  173.04 nm  f=0.0236  <S**2>=0.000
     100 -> 111        0.11886
     106 -> 112       -0.12092
     107 -> 112       -0.11527
     108 -> 111        0.12998
     108 -> 112        0.30092
     108 -> 117        0.19727
     108 -> 119        0.17618
     110 -> 126       -0.14288
     110 -> 127       -0.29403
     110 -> 129        0.12792

 Excited State  43:      Singlet-A      7.1924 eV  172.38 nm  f=0.0283  <S**2>=0.000
     100 -> 111        0.10018
     108 -> 111        0.12305
     108 -> 112        0.28239
     108 -> 117        0.18463
     108 -> 119        0.16253
     109 -> 125       -0.10072
     110 -> 121        0.10166
     110 -> 126        0.19708
     110 -> 127        0.30835
     110 -> 129       -0.16367

 Excited State  44:      Singlet-A      7.2167 eV  171.80 nm  f=0.0537  <S**2>=0.000
      86 -> 111        0.15090
      87 -> 111       -0.10530
      97 -> 111       -0.13067
     100 -> 111       -0.28777
     100 -> 112       -0.13920
     107 -> 111       -0.12540
     107 -> 112        0.30173
     107 -> 117        0.16997
     107 -> 119       -0.16928
     108 -> 112        0.15553
     109 -> 117        0.10290

 Excited State  45:      Singlet-A      7.2359 eV  171.35 nm  f=0.0091  <S**2>=0.000
      86 -> 111       -0.19546
      87 -> 111        0.16899
      89 -> 111        0.15366
      97 -> 111        0.16261
      99 -> 111        0.13322
     100 -> 111        0.20286
     100 -> 112        0.11719
     107 -> 111       -0.12689
     107 -> 112        0.27991
     107 -> 117        0.15455
     107 -> 119       -0.15796
     110 -> 127       -0.18368

 Excited State  46:      Singlet-A      7.2636 eV  170.69 nm  f=0.0250  <S**2>=0.000
     100 -> 111       -0.12115
     107 -> 112       -0.17571
     109 -> 126        0.18722
     109 -> 129       -0.15204
     110 -> 126        0.36750
     110 -> 127       -0.20837
     110 -> 129       -0.23227
     110 -> 130       -0.12636
     110 -> 132        0.10225

 Excited State  47:      Singlet-A      7.3092 eV  169.63 nm  f=0.0009  <S**2>=0.000
      84 -> 111        0.12145
      85 -> 111        0.14810
      92 -> 111       -0.11922
      93 -> 111        0.11669
      95 -> 111       -0.18601
      96 -> 111       -0.11970
      96 -> 112        0.12891
      97 -> 111       -0.17971
      99 -> 111        0.24484
     101 -> 111        0.38971
     101 -> 112       -0.20970

 Excited State  48:      Singlet-A      7.3546 eV  168.58 nm  f=0.0158  <S**2>=0.000
      97 -> 111        0.12431
     102 -> 112       -0.12360
     106 -> 112        0.36676
     106 -> 117        0.28424
     108 -> 112        0.12530
     109 -> 111        0.10489
     109 -> 115        0.14187
     109 -> 119        0.23050
     110 -> 117        0.11408

 Excited State  49:      Singlet-A      7.4382 eV  166.69 nm  f=0.0007  <S**2>=0.000
      89 -> 111       -0.10901
      90 -> 111       -0.14687
      91 -> 111        0.18614
      95 -> 111       -0.17641
      95 -> 112       -0.16150
      96 -> 111        0.33218
      97 -> 111       -0.20196
      98 -> 111        0.29365
      98 -> 112        0.12148

 Excited State  50:      Singlet-A      7.5458 eV  164.31 nm  f=0.0021  <S**2>=0.000
     110 -> 129       -0.19784
     110 -> 130        0.21703
     110 -> 131        0.37442
     110 -> 132        0.11647
     110 -> 133        0.10504
     110 -> 134        0.28043
     110 -> 135        0.13057
     110 -> 136        0.14310

 Excited State  51:      Singlet-A      7.5720 eV  163.74 nm  f=0.0032  <S**2>=0.000
      94 -> 111        0.12968
      95 -> 111        0.15627
      96 -> 111        0.25921
      96 -> 112       -0.13599
      98 -> 111       -0.31327
      98 -> 112        0.11792
      99 -> 111        0.38628
      99 -> 112       -0.16300

 Excited State  52:      Singlet-A      7.6589 eV  161.88 nm  f=0.0023  <S**2>=0.000
      81 -> 111       -0.10584
      82 -> 111       -0.14495
      86 -> 111       -0.30484
      87 -> 111        0.19071
      92 -> 111        0.13973
      93 -> 112        0.11250
      94 -> 111        0.34613
      94 -> 112        0.12519

 Excited State  53:      Singlet-A      7.6948 eV  161.13 nm  f=0.0084  <S**2>=0.000
     103 -> 116       -0.20234
     109 -> 121       -0.13852
     109 -> 127       -0.13591
     110 -> 120       -0.17746
     110 -> 125       -0.16998
     110 -> 126       -0.11882
     110 -> 128        0.31917
     110 -> 129       -0.16226
     110 -> 130        0.17310
     110 -> 135       -0.18004

 Excited State  54:      Singlet-A      7.7244 eV  160.51 nm  f=0.0060  <S**2>=0.000
     103 -> 116        0.48701
     104 -> 116       -0.10205
     105 -> 116       -0.13908
     107 -> 116       -0.19345
     110 -> 128        0.12469
     110 -> 135       -0.12606

 Excited State  55:      Singlet-A      7.7506 eV  159.97 nm  f=0.0134  <S**2>=0.000
     103 -> 116       -0.10559
     104 -> 114        0.11253
     104 -> 118        0.47792
     105 -> 118       -0.19592
     108 -> 118       -0.19150
     108 -> 124       -0.11344
     109 -> 118       -0.13215
     110 -> 118       -0.10198

 Excited State  56:      Singlet-A      7.7823 eV  159.32 nm  f=0.0350  <S**2>=0.000
     103 -> 113        0.33278
     103 -> 114       -0.20084
     103 -> 116       -0.10120
     104 -> 114        0.22621
     105 -> 113       -0.18016
     105 -> 115        0.12129
     106 -> 112        0.11101
     106 -> 114        0.11072
     109 -> 113       -0.16539
     109 -> 115        0.22811

 Excited State  57:      Singlet-A      7.7906 eV  159.15 nm  f=0.0110  <S**2>=0.000
      82 -> 111        0.18275
      85 -> 111        0.15067
      91 -> 111        0.24117
      92 -> 111       -0.18659
      94 -> 111        0.15444
      94 -> 112        0.15438
      95 -> 111        0.16323
      99 -> 111       -0.11231
     100 -> 113       -0.13531
     104 -> 113       -0.10184
     104 -> 114       -0.14796
     104 -> 118        0.12824

 Excited State  58:      Singlet-A      7.7999 eV  158.96 nm  f=0.1257  <S**2>=0.000
     102 -> 113       -0.10549

 The electronic state is 1-A.
 Alpha  occ. eigenvalues --  -89.07508 -89.07327 -14.52314 -14.51837 -10.40634
 Alpha  occ. eigenvalues --  -10.40176 -10.35767 -10.35639 -10.34424 -10.34316
 Alpha  occ. eigenvalues --  -10.33594 -10.33376 -10.32436 -10.32351 -10.31726
 Alpha  occ. eigenvalues --  -10.31032 -10.30948 -10.30763 -10.30632 -10.30253
 Alpha  occ. eigenvalues --  -10.30153 -10.30013 -10.30007 -10.29874 -10.29571
 Alpha  occ. eigenvalues --  -10.28728 -10.28722 -10.28057 -10.27882  -8.10775
 Alpha  occ. eigenvalues --   -8.10596  -6.05596  -6.05424  -6.05232  -6.05059
 Alpha  occ. eigenvalues --   -6.04815  -6.04624  -1.12116  -1.11922  -0.98034
 Alpha  occ. eigenvalues --   -0.97908  -0.95251  -0.94951  -0.93472  -0.91655
 Alpha  occ. eigenvalues --   -0.89320  -0.87608  -0.87293  -0.86515  -0.85000
 Alpha  occ. eigenvalues --   -0.84588  -0.83334  -0.80166  -0.76410  -0.75546
 Alpha  occ. eigenvalues --   -0.75370  -0.73145  -0.72359  -0.70938  -0.70146
 Alpha  occ. eigenvalues --   -0.68278  -0.66605  -0.65904  -0.65364  -0.61921
 Alpha  occ. eigenvalues --   -0.61786  -0.61573  -0.59743  -0.59394  -0.57651
 Alpha  occ. eigenvalues --   -0.56618  -0.56578  -0.56265  -0.55358  -0.55228
 Alpha  occ. eigenvalues --   -0.54765  -0.54408  -0.53377  -0.52481  -0.52126
 Alpha  occ. eigenvalues --   -0.51710  -0.50598  -0.49355  -0.49258  -0.48794
 Alpha  occ. eigenvalues --   -0.48519  -0.47884  -0.47617  -0.46853  -0.46572
 Alpha  occ. eigenvalues --   -0.46227  -0.45728  -0.45520  -0.45353  -0.44682
 Alpha  occ. eigenvalues --   -0.44306  -0.44123  -0.43872  -0.43704  -0.43511
 Alpha  occ. eigenvalues --   -0.43263  -0.40853  -0.40216  -0.40102  -0.37180
 Alpha  occ. eigenvalues --   -0.34227  -0.33000  -0.32884  -0.30312  -0.24069
 Alpha virt. eigenvalues --   -0.05883   0.01492   0.03740   0.03776   0.05023
 Alpha virt. eigenvalues --    0.05697   0.05916   0.06146   0.09256   0.11631
 Alpha virt. eigenvalues --    0.11795   0.12158   0.12642   0.12730   0.13093

 Mulliken charges:
               1
     1  C   -0.399642
     2  C   -0.043067
     3  C   -0.283813
     4  C   -0.048553
     5  C    0.260471
     6  S    0.045491
     7  C   -0.026374
     8  C    0.212829
     9  N    0.031576
    10  C   -0.182161
    11  C   -0.177231
    12  C   -0.125927
    13  C   -0.329868
    14  C   -0.168681
    15  C   -0.394363
    16  C   -0.304128
    17  C   -0.007793
    18  C   -0.413573
    19  C    0.250556
    20  S    0.074667
    21  C   -0.037011
    22  C    0.220683
    23  N    0.039905
    24  C   -0.180992
    25  C   -0.171200
    26  C   -0.133127
    27  C   -0.328105
    28  C   -0.201278
    29  C   -0.401454
    30  H    0.188811
    31  H    0.167737
    32  H    0.158211
    33  H    0.172838
    34  H    0.176940
    35  H    0.171666
    36  H    0.172804
    37  H    0.186433
    38  H    0.167597
    39  H    0.165980
    40  H    0.150602
    41  H    0.148103
    42  H    0.147004
    43  H    0.158049
    44  H    0.185526
    45  H    0.179693
    46  H    0.177457
    47  H    0.172457
    48  H    0.173286
    49  H    0.192570
    50  H    0.176873
    51  H    0.173679
    52  H    0.149785
    53  H    0.152964
    54  H    0.155100
 Sum of Mulliken charges =   1.00000

 Dipole moment (field-independent basis, Debye):
    X=             -0.7288    Y=              0.6487    Z=              0.6285  Tot=              1.1606
 Quadrupole moment (field-independent basis, Debye-Ang):
   XX=             37.5647   YY=           -146.1105   ZZ=           -192.6562
   XY=             26.8534   XZ=              4.9262   YZ=              5.1391

 Normal termination of Gaussian 16 at Mon Nov  6 04:40:42 2023.
