 Gaussian 16, Revision C.02,
 Gaussian 16:  ES64L-G16RevC.02  7-Dec-2021

 -------------------------------------------------------------
 # td=(nstates=150) wB97XD/def2TZVP scrf(smd, solvent=ethanol)
 -------------------------------------------------------------

 ---
 A-3
 ---
 Symbolic Z-matrix:
 Charge =  1 Multiplicity = 1

                         Standard orientation:
 ---------------------------------------------------------------------
 Center     Atomic      Atomic             Coordinates (Angstroms)
 Number     Number       Type             X           Y           Z
 ---------------------------------------------------------------------
      1          6           0       -2.428041    1.066524   -0.253176
      2          6           0       -1.163701    0.479343   -0.188922
      3          6           0        0.041805    1.173916   -0.256816
      4          6           0        1.286450    0.541332   -0.181046
      5          6           0       -3.632364    0.360929   -0.172103
      6         16           0       -3.731682   -1.381240    0.072853
      7          6           0       -5.492381   -1.316150    0.079346
      8          6           0       -5.937414    0.002523   -0.102460
      9          7           0       -4.878726    0.909623   -0.261587
     10          6           0       -6.386349   -2.371189    0.240698
     11          6           0       -7.751214   -2.085245    0.223608
     12          6           0       -8.201765   -0.770406    0.051330
     13          6           0       -7.306986    0.285734   -0.111525
     14          6           0       -5.109277    2.349928   -0.473641
     15          6           0       -5.164583    3.142776    0.833251
     16          6           0        2.499506    1.229230   -0.203687
     17          6           0        3.822110    0.764058   -0.127091
     18         16           0        5.094002    1.944187    0.172030
     19          6           0        6.326179    0.693711    0.140374
     20          6           0        5.740783   -0.561555   -0.088266
     21          7           0        4.346445   -0.488644   -0.256376
     22          6           0        7.702092    0.835001    0.309547
     23          6           0        8.493059   -0.310930    0.250826
     24          6           0        7.913914   -1.567173    0.028296
     25          6           0        6.538273   -1.709565   -0.142327
     26          6           0        3.573454   -1.678630   -0.651238
     27          6           0        3.111260   -2.522112    0.538719
     28          1           0       -2.480232    2.144966   -0.359543
     29          1           0       -1.101764   -0.604050   -0.075964
     30          1           0        0.014895    2.256753   -0.370616
     31          1           0        1.271155   -0.537990   -0.061902
     32          1           0       -6.030956   -3.387372    0.377927
     33          1           0       -8.467850   -2.890478    0.348789
     34          1           0       -9.267265   -0.563876    0.046694
     35          1           0       -7.675558    1.298131   -0.232690
     36          1           0       -4.320988    2.718242   -1.133807
     37          1           0       -6.043470    2.442277   -1.031819
     38          1           0       -4.221825    3.066705    1.383681
     39          1           0       -5.350379    4.199206    0.614515
     40          1           0       -5.968923    2.780771    1.480961
     41          1           0        2.426074    2.314290   -0.229676
     42          1           0        8.144449    1.810753    0.482525
     43          1           0        9.567045   -0.226720    0.381606
     44          1           0        8.544040   -2.450028   -0.009720
     45          1           0        6.108776   -2.691785   -0.303762
     46          1           0        2.735494   -1.334144   -1.259472
     47          1           0        4.216087   -2.264286   -1.313807
     48          1           0        3.963720   -2.884064    1.121248
     49          1           0        2.464779   -1.951800    1.212975
     50          1           0        2.552692   -3.391803    0.177306
 ---------------------------------------------------------------------

 SCF Done:  E(RwB97XD) =  -1796.08975627     A.U. after   14 cycles

 Excitation energies and oscillator strengths:

 Excited State   1:      Singlet-A      2.2895 eV  541.54 nm  f=2.2890  <S**2>=0.000
     102 ->105        -0.11681
     103 ->104         0.69001
 This state for optimization and/or second-order correction.
 Total Energy, E(TD-HF/TD-DFT) =  -1796.00561894
 Copying the excited state density for this state as the 1-particle RhoCI density.

 Excited State   2:      Singlet-A      4.1677 eV  297.49 nm  f=0.0759  <S**2>=0.000
     102 ->104         0.59472
     103 ->105        -0.30882

 Excited State   3:      Singlet-A      4.6206 eV  268.33 nm  f=0.0044  <S**2>=0.000
     101 ->104         0.48076
     101 ->105         0.18997
     102 ->106        -0.11132
     102 ->107         0.14630
     103 ->105        -0.14330
     103 ->106         0.24037
     103 ->107        -0.24811

 Excited State   4:      Singlet-A      4.6583 eV  266.15 nm  f=0.0297  <S**2>=0.000
     100 ->104         0.53287
     100 ->105        -0.19949
     102 ->106         0.13381
     102 ->107         0.10466
     103 ->106         0.19069
     103 ->107         0.23738

 Excited State   5:      Singlet-A      4.7390 eV  261.63 nm  f=0.0077  <S**2>=0.000
     102 ->104        -0.20245
     102 ->109         0.12865
     102 ->110        -0.16039
     103 ->105        -0.32919
     103 ->109         0.35998
     103 ->110         0.33498

 Excited State   6:      Singlet-A      4.7720 eV  259.82 nm  f=0.0014  <S**2>=0.000
     100 ->109         0.11485
     102 ->109         0.23153
     102 ->110         0.14549
     103 ->109         0.42905
     103 ->110        -0.42431

 Excited State   7:      Singlet-A      4.7774 eV  259.52 nm  f=0.0232  <S**2>=0.000
     102 ->104         0.24772
     102 ->110        -0.14716
     103 ->105         0.44637
     103 ->109         0.22575
     103 ->110         0.29744

 Excited State   8:      Singlet-A      4.9356 eV  251.21 nm  f=0.1413  <S**2>=0.000
     101 ->104         0.39521
     101 ->111         0.11300
     102 ->105         0.11869
     102 ->106         0.11673
     102 ->107        -0.13339
     103 ->106        -0.32369
     103 ->107         0.26916
     103 ->108        -0.11620

 Excited State   9:      Singlet-A      4.9856 eV  248.68 nm  f=0.0396  <S**2>=0.000
      99 ->104         0.15637
     100 ->104        -0.32888
     100 ->106        -0.12078
     100 ->107        -0.11620
     100 ->108         0.11490
     102 ->105        -0.12552
     102 ->106         0.17960
     103 ->106         0.21654
     103 ->107         0.34752
     103 ->108         0.16150
     103 ->111         0.10553

 Excited State  10:      Singlet-A      5.1624 eV  240.17 nm  f=0.1107  <S**2>=0.000
      99 ->104         0.40298
     100 ->104         0.12562
     102 ->105        -0.16777
     102 ->107        -0.17379
     103 ->106        -0.30500
     103 ->108         0.30095

 Excited State  11:      Singlet-A      5.4343 eV  228.15 nm  f=0.0490  <S**2>=0.000
      99 ->104        -0.31907
     100 ->104         0.10250
     100 ->106        -0.12909
     100 ->107        -0.12128
     101 ->107        -0.10226
     102 ->108         0.20669
     103 ->107        -0.17848
     103 ->108         0.28315
     103 ->111         0.35305

 Excited State  12:      Singlet-A      5.4607 eV  227.05 nm  f=0.0130  <S**2>=0.000
      99 ->104         0.33704
     101 ->104        -0.13493
     101 ->106         0.11955
     101 ->107        -0.13848
     102 ->108         0.12091
     102 ->111        -0.17079
     103 ->107        -0.14085
     103 ->108        -0.33073
     103 ->111         0.33176

 Excited State  13:      Singlet-A      5.9343 eV  208.93 nm  f=0.0584  <S**2>=0.000
      98 ->104         0.35216
      99 ->105        -0.10817
     100 ->106        -0.23176
     100 ->107        -0.22550
     100 ->108         0.11958
     101 ->107        -0.14029
     103 ->105         0.12430
     103 ->107        -0.12794
     103 ->111        -0.34672

 Excited State  14:      Singlet-A      5.9901 eV  206.98 nm  f=0.5729  <S**2>=0.000
      99 ->104        -0.11773
     100 ->106        -0.22676
     100 ->107        -0.24521
     101 ->106        -0.28085
     101 ->107         0.29746
     101 ->108         0.12329
     103 ->106        -0.19515
     103 ->108        -0.25910
     103 ->111         0.10008

 Excited State  15:      Singlet-A      6.0777 eV  204.00 nm  f=0.0149  <S**2>=0.000
      96 ->109         0.18654
     100 ->109         0.58935
     101 ->110         0.14324
     103 ->109        -0.19917

 Excited State  16:      Singlet-A      6.1068 eV  203.03 nm  f=0.0040  <S**2>=0.000
      97 ->110         0.18368
     100 ->109        -0.15351
     101 ->110         0.57311
     101 ->111         0.11373
     103 ->110        -0.19786

 Excited State  17:      Singlet-A      6.1399 eV  201.93 nm  f=0.0902  <S**2>=0.000
      97 ->104        -0.10910
      98 ->104        -0.29183
     100 ->106        -0.16967
     100 ->107        -0.13354
     101 ->105         0.20537
     101 ->106         0.29576
     101 ->107        -0.25927
     101 ->108         0.16643
     101 ->110         0.15133
     101 ->111        -0.16338

 Excited State  18:      Singlet-A      6.1760 eV  200.75 nm  f=0.0062  <S**2>=0.000
      97 ->104        -0.11635
      98 ->104         0.18645
      99 ->106         0.15900
     100 ->105        -0.25899
     100 ->106         0.23540
     100 ->107         0.14889
     100 ->108         0.26959
     100 ->111         0.17142
     101 ->105         0.12006
     101 ->108         0.17035
     101 ->111        -0.14253
     102 ->107         0.12267
     103 ->106        -0.18598

 Excited State  19:      Singlet-A      6.2035 eV  199.86 nm  f=0.0501  <S**2>=0.000
      96 ->104         0.17836
      98 ->104         0.34100
      98 ->106        -0.11657
      99 ->107        -0.18472
     100 ->105         0.16035
     100 ->108        -0.24547
     100 ->111        -0.13200
     101 ->105         0.11661
     101 ->108         0.14665
     101 ->111        -0.15173
     102 ->106        -0.12657
     103 ->107         0.17326
     103 ->112        -0.13243

 Excited State  20:      Singlet-A      6.2866 eV  197.22 nm  f=0.0252  <S**2>=0.000
      96 ->104         0.19037
      99 ->104        -0.10563
     102 ->105        -0.15603
     102 ->111        -0.14638
     103 ->112         0.54560
     103 ->113         0.13788

 Excited State  21:      Singlet-A      6.3889 eV  194.06 nm  f=0.0006  <S**2>=0.000
      86 ->104        -0.13828
      88 ->104        -0.15786
      89 ->104         0.15260
      90 ->104        -0.34671
      91 ->104         0.19976
      92 ->104        -0.22984
      94 ->104         0.35678
      96 ->104        -0.10624

 Excited State  22:      Singlet-A      6.3976 eV  193.80 nm  f=0.0011  <S**2>=0.000
      90 ->104         0.10274
      96 ->104        -0.17455
      97 ->104        -0.13325
      98 ->104         0.13842
     103 ->113        -0.25422
     103 ->114         0.36757
     103 ->115        -0.33592

 Excited State  23:      Singlet-A      6.4767 eV  191.43 nm  f=0.0393  <S**2>=0.000
      96 ->104         0.53604
      96 ->105        -0.15722
      97 ->104        -0.12616
      97 ->105        -0.10570
     103 ->112        -0.10723
     103 ->113        -0.10781
     103 ->114         0.15380
     103 ->115        -0.13840

 Excited State  24:      Singlet-A      6.5159 eV  190.28 nm  f=0.0491  <S**2>=0.000
      97 ->104         0.56811
      97 ->105         0.18026
     101 ->104        -0.13560
     103 ->114         0.12467
     103 ->115        -0.13131

 Excited State  25:      Singlet-A      6.6033 eV  187.76 nm  f=0.0025  <S**2>=0.000
      99 ->110         0.11800
     102 ->105        -0.20458
     102 ->110        -0.13877
     102 ->111        -0.10189
     102 ->116        -0.12043
     103 ->113         0.17617
     103 ->115        -0.23003
     103 ->116         0.38101
     103 ->117         0.22690

 Excited State  26:      Singlet-A      6.6117 eV  187.52 nm  f=0.0021  <S**2>=0.000
      99 ->109        -0.11188
     102 ->109        -0.11014
     102 ->116        -0.14047
     103 ->112         0.10205
     103 ->113        -0.36968
     103 ->114        -0.22936
     103 ->116         0.37360
     103 ->117        -0.13045
     103 ->120        -0.11544

 Excited State  27:      Singlet-A      6.6753 eV  185.74 nm  f=0.0354  <S**2>=0.000
      98 ->111        -0.10188
      99 ->108        -0.14830
     102 ->105         0.47159
     102 ->107         0.13497
     102 ->110        -0.11134
     103 ->104         0.12230
     103 ->108         0.10781
     103 ->112         0.16955
     103 ->113         0.17396
     103 ->115        -0.14726

 Excited State  28:      Singlet-A      6.7474 eV  183.75 nm  f=0.0007  <S**2>=0.000
      98 ->109         0.12976
      99 ->109         0.33018
     100 ->109        -0.10917
     102 ->109         0.32028
     103 ->109        -0.11555
     103 ->112         0.12586
     103 ->113        -0.22381
     103 ->114        -0.18200
     103 ->116        -0.12062
     103 ->117         0.16847
     103 ->118         0.12290
     103 ->120        -0.13651

 Excited State  29:      Singlet-A      6.7880 eV  182.65 nm  f=0.7412  <S**2>=0.000
      98 ->107         0.12702
      99 ->106         0.32593
     100 ->105         0.16685
     100 ->108        -0.20240
     100 ->111        -0.10521
     101 ->105        -0.11860
     101 ->108        -0.15193
     101 ->111         0.12015
     102 ->107         0.34841
     103 ->106        -0.18727

 Excited State  30:      Singlet-A      6.7915 eV  182.56 nm  f=0.1777  <S**2>=0.000
      98 ->106         0.14250
      99 ->105        -0.10530
      99 ->107         0.29680
     100 ->105         0.10747
     100 ->108        -0.15316
     101 ->105         0.16455
     101 ->108         0.18831
     101 ->111        -0.17249
     102 ->106         0.36181
     102 ->110        -0.12920
     103 ->107        -0.16499

 Excited State  31:      Singlet-A      6.8113 eV  182.03 nm  f=0.0357  <S**2>=0.000
      81 ->104        -0.10225
      83 ->104         0.19227
      85 ->104        -0.10223
      86 ->104        -0.11842
      87 ->104         0.18353
      88 ->104        -0.12267
      89 ->104         0.28446
      90 ->104         0.18077
      91 ->104         0.23451
      94 ->104        -0.19654
      94 ->105        -0.10816
      95 ->104         0.21473

 Excited State  32:      Singlet-A      6.8274 eV  181.60 nm  f=0.0158  <S**2>=0.000
      98 ->110         0.10326
      99 ->110        -0.33696
     102 ->106         0.10315
     102 ->109         0.16576
     102 ->110         0.38599
     103 ->110         0.15475
     103 ->113         0.16626
     103 ->115        -0.11647

 Excited State  33:      Singlet-A      6.9093 eV  179.45 nm  f=0.0125  <S**2>=0.000
      99 ->109         0.17993
     102 ->109         0.17705
     102 ->113         0.10381
     102 ->117        -0.10562
     103 ->114         0.26622
     103 ->115         0.30954
     103 ->116         0.19511
     103 ->117        -0.11732
     103 ->118        -0.19694
     103 ->119        -0.21562

 Excited State  34:      Singlet-A      6.9643 eV  178.03 nm  f=0.0509  <S**2>=0.000
      83 ->104        -0.10545
      84 ->104         0.10530
      87 ->104        -0.10676
      89 ->104        -0.13530
      91 ->104        -0.10063
      95 ->104         0.50462
      98 ->105        -0.13985
      99 ->108         0.12703
     103 ->117        -0.10516

 Excited State  35:      Singlet-A      7.0170 eV  176.69 nm  f=0.0011  <S**2>=0.000
      95 ->104         0.19094
      99 ->109        -0.11785
     102 ->108        -0.11510
     102 ->110         0.12161
     102 ->119         0.12620
     103 ->115         0.14285
     103 ->117         0.42006
     103 ->118         0.10311
     103 ->119        -0.24236

 Excited State  36:      Singlet-A      7.0793 eV  175.14 nm  f=0.0418  <S**2>=0.000
      98 ->108         0.17161
      99 ->105        -0.24795
      99 ->107        -0.13726
      99 ->111         0.23093
     102 ->108         0.36562
     103 ->105         0.10050
     103 ->111        -0.18273
     103 ->117         0.13465

 Excited State  37:      Singlet-A      7.1419 eV  173.60 nm  f=0.0014  <S**2>=0.000
      82 ->104        -0.16215
      85 ->104        -0.14180
      87 ->104        -0.14808
      88 ->104         0.18395
      89 ->104         0.16105
      91 ->104        -0.10005
      93 ->104         0.48324
      93 ->105        -0.18822

 Excited State  38:      Singlet-A      7.2242 eV  171.62 nm  f=0.1221  <S**2>=0.000
      95 ->104        -0.14185
      98 ->105        -0.13685
      98 ->111         0.11621
      99 ->108         0.29614
     101 ->111        -0.10238
     102 ->111         0.37400
     103 ->108        -0.16511

 Excited State  39:      Singlet-A      7.3034 eV  169.76 nm  f=0.0001  <S**2>=0.000
      78 ->104         0.14111
      81 ->104        -0.10513
      87 ->104         0.14571
      90 ->104         0.16613
      92 ->104         0.12132
      93 ->104         0.23486
      93 ->105        -0.12157
      94 ->104         0.30265
      94 ->105         0.14012
     102 ->118        -0.10936
     103 ->118        -0.26203
     103 ->120        -0.13896
     103 ->121        -0.14619

 Excited State  40:      Singlet-A      7.3136 eV  169.52 nm  f=0.0030  <S**2>=0.000
      81 ->104        -0.11592
      90 ->104         0.18204
      92 ->104         0.13499
      94 ->104         0.28764
      94 ->105         0.13651
     102 ->118         0.13962
     103 ->118         0.33455
     103 ->120         0.18215
     103 ->121         0.19238

 Excited State  41:      Singlet-A      7.3638 eV  168.37 nm  f=0.0046  <S**2>=0.000
      78 ->104         0.20179
      80 ->104        -0.16283
      81 ->104         0.12951
      82 ->104         0.12665
      85 ->104         0.21865
      87 ->104         0.11909
      88 ->104        -0.17197
      89 ->104        -0.17258
      92 ->104        -0.19170
      93 ->104         0.26521
      93 ->105        -0.12216
      94 ->104        -0.13540
     103 ->118         0.13921

 Excited State  42:      Singlet-A      7.4168 eV  167.17 nm  f=0.0346  <S**2>=0.000
      97 ->105         0.11651
     101 ->104        -0.16382
     101 ->105         0.41273
     101 ->111         0.34594
     101 ->112         0.20325

 Excited State  43:      Singlet-A      7.4464 eV  166.50 nm  f=0.0286  <S**2>=0.000
      86 ->104         0.12786
      87 ->104        -0.10752
      88 ->104         0.11728
      89 ->104        -0.16752
      91 ->104         0.40674
     100 ->105        -0.22768
     100 ->111        -0.17559
     100 ->112         0.11779

 Excited State  44:      Singlet-A      7.4602 eV  166.19 nm  f=0.0353  <S**2>=0.000
      84 ->104        -0.10601
      86 ->104         0.12548
      91 ->104         0.28656
      96 ->105         0.11144
     100 ->104         0.14427
     100 ->105         0.33946
     100 ->108         0.12837
     100 ->111         0.25751
     100 ->112        -0.17065

 Excited State  45:      Singlet-A      7.5248 eV  164.77 nm  f=0.0031  <S**2>=0.000
     102 ->113         0.11703
     102 ->117         0.10201
     102 ->119        -0.10248
     103 ->114         0.18006
     103 ->115         0.16227
     103 ->116         0.13512
     103 ->119         0.36689
     103 ->120        -0.20661
     103 ->121         0.14089
     103 ->125        -0.24643

 Excited State  46:      Singlet-A      7.5894 eV  163.36 nm  f=0.0032  <S**2>=0.000
      88 ->104        -0.10370
      90 ->104        -0.32075
      90 ->105        -0.10691
      91 ->104         0.11700
      92 ->104         0.48310
      92 ->105         0.13412

 Excited State  47:      Singlet-A      7.6608 eV  161.84 nm  f=0.0048  <S**2>=0.000
     102 ->116        -0.12830
     102 ->117         0.10093
     103 ->121         0.17755
     103 ->122         0.48181
     103 ->124        -0.10126
     103 ->126        -0.23862
     103 ->131         0.11201

 Excited State  48:      Singlet-A      7.7411 eV  160.16 nm  f=0.0021  <S**2>=0.000
      96 ->109         0.56147
      97 ->109         0.10941
      98 ->109        -0.12319
     100 ->109        -0.21721

 Excited State  49:      Singlet-A      7.7587 eV  159.80 nm  f=0.0027  <S**2>=0.000
      77 ->104         0.18780
      78 ->104         0.10574
      81 ->104        -0.17846
      83 ->104         0.10815
      86 ->104         0.24326
      87 ->104         0.12414
      88 ->104         0.19604
      89 ->104         0.11582
      89 ->105        -0.17022
      90 ->104        -0.13630
      92 ->104        -0.15838
      96 ->106         0.10092
      97 ->107         0.10202
      99 ->105         0.15072

 Excited State  50:      Singlet-A      7.7792 eV  159.38 nm  f=0.0052  <S**2>=0.000
      97 ->110         0.52046
      98 ->110         0.16323
     101 ->110        -0.20463
     101 ->116        -0.12975

 Excited State  51:      Singlet-A      7.7998 eV  158.96 nm  f=0.0065  <S**2>=0.000
      78 ->104        -0.10620
      88 ->104        -0.17799
      96 ->106         0.21187
      96 ->107         0.14261
      97 ->106        -0.11398
      97 ->107         0.19147
      97 ->110        -0.14005
      99 ->105         0.29637
      99 ->111         0.17497
     102 ->112        -0.17085

 Excited State  52:      Singlet-A      7.8538 eV  157.87 nm  f=0.2627  <S**2>=0.000
      96 ->106         0.18290
      96 ->107         0.27055
      97 ->106         0.37673
      97 ->107        -0.28926
      98 ->107        -0.11600
     102 ->111        -0.13949
     103 ->120         0.10030

 Excited State  53:      Singlet-A      7.8578 eV  157.78 nm  f=0.0041  <S**2>=0.000
      74 ->104         0.12985
      77 ->104        -0.17482
      78 ->104         0.15831
      80 ->104        -0.18837
      81 ->104         0.24259
      83 ->104        -0.15127
      87 ->104        -0.10448
      88 ->104         0.18344
      88 ->105        -0.11724
      89 ->104         0.20600
      91 ->104         0.12154
      92 ->104         0.14959
      93 ->106        -0.14359
      93 ->107        -0.12702

 Excited State  54:      Singlet-A      7.8779 eV  157.38 nm  f=0.0444  <S**2>=0.000
      96 ->106         0.27515
      96 ->107         0.19510
      97 ->106        -0.11543
      97 ->107         0.20672
      99 ->105        -0.19175
      99 ->111        -0.18975
     102 ->108        -0.16640
     102 ->112         0.13011
     103 ->120         0.17874
     103 ->125        -0.11005

 Excited State  55:      Singlet-A      7.9017 eV  156.91 nm  f=0.0102  <S**2>=0.000
      86 ->104        -0.18868
      87 ->105         0.10699
      88 ->104         0.13864
      90 ->106        -0.12340
      90 ->107         0.14476
      91 ->106         0.10151
      94 ->106        -0.27597
      94 ->107         0.28567
     103 ->120         0.13578

 Excited State  56:      Singlet-A      7.9156 eV  156.63 nm  f=0.0457  <S**2>=0.000
      88 ->104        -0.10086
      94 ->106         0.15448
      94 ->107        -0.16253
      96 ->106        -0.12970
      96 ->107        -0.13984
     102 ->119        -0.10554
     103 ->113        -0.12993
     103 ->117         0.14264
     103 ->118        -0.13198
     103 ->119         0.16032
     103 ->120         0.31919
     103 ->123        -0.14518

 Excited State  57:      Singlet-A      7.9500 eV  155.96 nm  f=0.0123  <S**2>=0.000
      82 ->104         0.18679
      84 ->104         0.24005
      86 ->104        -0.15357
      87 ->104        -0.11843
      88 ->104         0.19152
      90 ->106         0.10840
      91 ->107         0.11799
      93 ->106         0.22885
      93 ->107         0.22799
      94 ->106         0.15370
      94 ->107        -0.12674
     102 ->106         0.10019

 The electronic state is 1-A.
 Alpha  occ. eigenvalues --  -89.07600 -89.07424 -14.52449 -14.51957 -10.40759
 Alpha  occ. eigenvalues --  -10.40307 -10.35824 -10.35694 -10.34484 -10.34381
 Alpha  occ. eigenvalues --  -10.33659 -10.33425 -10.32589 -10.32533 -10.31076
 Alpha  occ. eigenvalues --  -10.30996 -10.30820 -10.30681 -10.30292 -10.30192
 Alpha  occ. eigenvalues --  -10.30071 -10.30052 -10.29923 -10.29647 -10.28906
 Alpha  occ. eigenvalues --  -10.28096 -10.27911  -8.10869  -8.10693  -6.05689
 Alpha  occ. eigenvalues --   -6.05521  -6.05324  -6.05156  -6.04911  -6.04722
 Alpha  occ. eigenvalues --   -1.12246  -1.12032  -0.98096  -0.97972  -0.95414
 Alpha  occ. eigenvalues --   -0.94882  -0.93052  -0.90587  -0.88090  -0.87427
 Alpha  occ. eigenvalues --   -0.87008  -0.85283  -0.84762  -0.83854  -0.80495
 Alpha  occ. eigenvalues --   -0.76251  -0.75600  -0.75404  -0.73024  -0.72154
 Alpha  occ. eigenvalues --   -0.70854  -0.69916  -0.67544  -0.66501  -0.65648
 Alpha  occ. eigenvalues --   -0.61995  -0.61861  -0.61479  -0.60446  -0.58689
 Alpha  occ. eigenvalues --   -0.57967  -0.56674  -0.56626  -0.55614  -0.55358
 Alpha  occ. eigenvalues --   -0.54866  -0.54723  -0.53885  -0.52646  -0.52480
 Alpha  occ. eigenvalues --   -0.52143  -0.50591  -0.49624  -0.49359  -0.49160
 Alpha  occ. eigenvalues --   -0.48562  -0.48067  -0.47436  -0.46997  -0.46377
 Alpha  occ. eigenvalues --   -0.45909  -0.45629  -0.45563  -0.45171  -0.44493
 Alpha  occ. eigenvalues --   -0.44082  -0.43808  -0.43577  -0.43340  -0.43011
 Alpha  occ. eigenvalues --   -0.40291  -0.40206  -0.38793  -0.35253  -0.33057
 Alpha  occ. eigenvalues --   -0.32940  -0.31603  -0.24936
 Alpha virt. eigenvalues --   -0.05155   0.02822   0.03709   0.03772   0.05227
 Alpha virt. eigenvalues --    0.05656   0.06071   0.06405   0.10782   0.11577
 Alpha virt. eigenvalues --    0.11904   0.12425   0.12673   0.13301   0.13807

 Mulliken charges:
               1
     1  C   -0.412166
     2  C   -0.023800
     3  C   -0.340495
     4  C    0.000138
     5  C    0.265161
     6  S    0.046097
     7  C   -0.024588
     8  C    0.212623
     9  N    0.032996
    10  C   -0.182868
    11  C   -0.176441
    12  C   -0.125448
    13  C   -0.329386
    14  C   -0.167662
    15  C   -0.395174
    16  C   -0.428954
    17  C    0.257541
    18  S    0.077107
    19  C   -0.035728
    20  C    0.221101
    21  N    0.040911
    22  C   -0.182395
    23  C   -0.169776
    24  C   -0.132913
    25  C   -0.327631
    26  C   -0.202132
    27  C   -0.401556
    28  H    0.188972
    29  H    0.173041
    30  H    0.158113
    31  H    0.187741
    32  H    0.177086
    33  H    0.171995
    34  H    0.173024
    35  H    0.186714
    36  H    0.166346
    37  H    0.168008
    38  H    0.148332
    39  H    0.150774
    40  H    0.147174
    41  H    0.180688
    42  H    0.178070
    43  H    0.172721
    44  H    0.173626
    45  H    0.192937
    46  H    0.177014
    47  H    0.174284
    48  H    0.155500
    49  H    0.149947
    50  H    0.153331
 Sum of Mulliken charges =   1.00000

 Dipole moment (field-independent basis, Debye):
    X=             -0.8379    Y=             -0.2891    Z=             -1.0286  Tot=              1.3578
 Quadrupole moment (field-independent basis, Debye-Ang):
   XX=            -11.6174   YY=           -134.8847   ZZ=           -179.3251
   XY=            -21.2076   XZ=              1.2062   YZ=             -0.8505

 Normal termination of Gaussian 16 at Mon Nov  6 03:22:54 2023.
