 Gaussian 16, Revision C.02,
 Gaussian 16:  ES64L-G16RevC.02  7-Dec-2021

 ----------------------------------------------------------------------
 # td=(nstates=150) PBEPBE/def2TZVP IOp(3/76=1000003750) IOp(3/77=06250
 06250) IOp(3/78=1000010000) scrf(smd, solvent=ethanol)
 ----------------------------------------------------------------------

 ---
 A-3
 ---
 Symbolic Z-matrix:
 Charge =  1 Multiplicity = 1

                         Standard orientation:
 ---------------------------------------------------------------------
 Center     Atomic      Atomic             Coordinates (Angstroms)
 Number     Number       Type             X           Y           Z
 ---------------------------------------------------------------------
      1          6           0       -2.428041    1.066524   -0.253176
      2          6           0       -1.163701    0.479343   -0.188922
      3          6           0        0.041805    1.173916   -0.256816
      4          6           0        1.286450    0.541332   -0.181046
      5          6           0       -3.632364    0.360929   -0.172103
      6         16           0       -3.731682   -1.381240    0.072853
      7          6           0       -5.492381   -1.316150    0.079346
      8          6           0       -5.937414    0.002523   -0.102460
      9          7           0       -4.878726    0.909623   -0.261587
     10          6           0       -6.386349   -2.371189    0.240698
     11          6           0       -7.751214   -2.085245    0.223608
     12          6           0       -8.201765   -0.770406    0.051330
     13          6           0       -7.306986    0.285734   -0.111525
     14          6           0       -5.109277    2.349928   -0.473641
     15          6           0       -5.164583    3.142776    0.833251
     16          6           0        2.499506    1.229230   -0.203687
     17          6           0        3.822110    0.764058   -0.127091
     18         16           0        5.094002    1.944187    0.172030
     19          6           0        6.326179    0.693711    0.140374
     20          6           0        5.740783   -0.561555   -0.088266
     21          7           0        4.346445   -0.488644   -0.256376
     22          6           0        7.702092    0.835001    0.309547
     23          6           0        8.493059   -0.310930    0.250826
     24          6           0        7.913914   -1.567173    0.028296
     25          6           0        6.538273   -1.709565   -0.142327
     26          6           0        3.573454   -1.678630   -0.651238
     27          6           0        3.111260   -2.522112    0.538719
     28          1           0       -2.480232    2.144966   -0.359543
     29          1           0       -1.101764   -0.604050   -0.075964
     30          1           0        0.014895    2.256753   -0.370616
     31          1           0        1.271155   -0.537990   -0.061902
     32          1           0       -6.030956   -3.387372    0.377927
     33          1           0       -8.467850   -2.890478    0.348789
     34          1           0       -9.267265   -0.563876    0.046694
     35          1           0       -7.675558    1.298131   -0.232690
     36          1           0       -4.320988    2.718242   -1.133807
     37          1           0       -6.043470    2.442277   -1.031819
     38          1           0       -4.221825    3.066705    1.383681
     39          1           0       -5.350379    4.199206    0.614515
     40          1           0       -5.968923    2.780771    1.480961
     41          1           0        2.426074    2.314290   -0.229676
     42          1           0        8.144449    1.810753    0.482525
     43          1           0        9.567045   -0.226720    0.381606
     44          1           0        8.544040   -2.450028   -0.009720
     45          1           0        6.108776   -2.691785   -0.303762
     46          1           0        2.735494   -1.334144   -1.259472
     47          1           0        4.216087   -2.264286   -1.313807
     48          1           0        3.963720   -2.884064    1.121248
     49          1           0        2.464779   -1.951800    1.212975
     50          1           0        2.552692   -3.391803    0.177306
 ---------------------------------------------------------------------

 SCF Done:  E(RPBE+HF-PBE) =  -1795.06690579     A.U. after   13 cycles

 Excitation energies and oscillator strengths:

 Excited State   1:      Singlet-A      2.3384 eV  530.21 nm  f=2.3541  <S**2>=0.000
     103 ->104         0.70226
 This state for optimization and/or second-order correction.
 Total Energy, E(TD-HF/TD-DFT) =  -1794.98097066
 Copying the excited state density for this state as the 1-particle RhoCI density.

 Excited State   2:      Singlet-A      3.9558 eV  313.42 nm  f=0.0289  <S**2>=0.000
     102 ->104         0.69069

 Excited State   3:      Singlet-A      4.2244 eV  293.49 nm  f=0.0153  <S**2>=0.000
     101 ->104         0.61772
     101 ->105        -0.10112
     103 ->106        -0.22484
     103 ->107        -0.14685

 Excited State   4:      Singlet-A      4.2451 eV  292.07 nm  f=0.0206  <S**2>=0.000
     100 ->104         0.63307
     103 ->106        -0.13580
     103 ->107         0.21839

 Excited State   5:      Singlet-A      4.3324 eV  286.18 nm  f=0.0895  <S**2>=0.000
     103 ->105         0.67630
     103 ->107         0.13567

 Excited State   6:      Singlet-A      4.4913 eV  276.06 nm  f=0.0949  <S**2>=0.000
     101 ->104         0.28934
     103 ->106         0.50068
     103 ->107         0.35247

 Excited State   7:      Singlet-A      4.5040 eV  275.27 nm  f=0.0238  <S**2>=0.000
     100 ->104         0.19298
     102 ->109        -0.12503
     103 ->105         0.10046
     103 ->106         0.24354
     103 ->107        -0.37327
     103 ->109         0.45631

 Excited State   8:      Singlet-A      4.5486 eV  272.58 nm  f=0.0143  <S**2>=0.000
     100 ->104        -0.19462
     102 ->109        -0.12602
     103 ->106        -0.28044
     103 ->107         0.33658
     103 ->109         0.46916

 Excited State   9:      Singlet-A      4.5954 eV  269.80 nm  f=0.0009  <S**2>=0.000
     101 ->110        -0.10340
     102 ->110         0.17149
     103 ->110         0.65907

 Excited State  10:      Singlet-A      4.8281 eV  256.79 nm  f=0.0099  <S**2>=0.000
      99 ->104         0.68489

 Excited State  11:      Singlet-A      4.8778 eV  254.18 nm  f=0.0316  <S**2>=0.000
     102 ->111        -0.10500
     103 ->108         0.66096
     103 ->109        -0.10921

 Excited State  12:      Singlet-A      5.1194 eV  242.19 nm  f=0.0101  <S**2>=0.000
     102 ->108        -0.11588
     103 ->111         0.66215

 Excited State  13:      Singlet-A      5.5754 eV  222.38 nm  f=0.0091  <S**2>=0.000
      98 ->104         0.52708
      99 ->105         0.12989
     100 ->106        -0.14524
     100 ->107         0.18474
     100 ->108        -0.12843
     101 ->106         0.11818
     101 ->107         0.13162
     102 ->106         0.16327

 Excited State  14:      Singlet-A      5.6463 eV  219.58 nm  f=0.1252  <S**2>=0.000
      99 ->106         0.17248
      99 ->108        -0.10902
     100 ->106        -0.14302
     100 ->107         0.20756
     100 ->108        -0.13069
     101 ->106        -0.16739
     101 ->107        -0.18012
     101 ->108        -0.13549
     101 ->111         0.10102
     102 ->105         0.41954
     102 ->107        -0.13516
     103 ->106         0.14451
     103 ->108        -0.15003

 Excited State  15:      Singlet-A      5.7944 eV  213.97 nm  f=0.0175  <S**2>=0.000
      98 ->104         0.42679
      99 ->105        -0.10057
      99 ->107         0.16952
     100 ->107        -0.12024
     100 ->108         0.11354
     101 ->105        -0.13489
     101 ->107        -0.10731
     101 ->108        -0.12332
     102 ->106        -0.33201
     103 ->107         0.11252

 Excited State  16:      Singlet-A      5.9030 eV  210.04 nm  f=0.0379  <S**2>=0.000
      99 ->106        -0.17191
     100 ->105        -0.22452
     100 ->108         0.12669
     100 ->109        -0.13513
     101 ->105         0.18135
     101 ->106        -0.18795
     101 ->108         0.10071
     102 ->105         0.18747
     102 ->107         0.41614
     103 ->106        -0.10356

 Excited State  17:      Singlet-A      5.9180 eV  209.50 nm  f=0.0029  <S**2>=0.000
      96 ->109         0.14222
     100 ->109         0.57261
     102 ->109         0.17186
     103 ->109         0.15548

 Excited State  18:      Singlet-A      5.9536 eV  208.25 nm  f=0.0241  <S**2>=0.000
      96 ->104        -0.20074
      99 ->107         0.10716
     100 ->105        -0.22162
     100 ->106        -0.19287
     100 ->107         0.16511
     100 ->108         0.11585
     101 ->105        -0.16139
     101 ->106         0.21873
     101 ->107         0.15609
     101 ->110         0.26830
     102 ->106        -0.18379
     102 ->108        -0.13422
     102 ->110        -0.10934

 Excited State  19:      Singlet-A      5.9697 eV  207.69 nm  f=0.0029  <S**2>=0.000
      96 ->104         0.10622
      97 ->110         0.12716
     100 ->105         0.10666
     100 ->106         0.10636
     100 ->109        -0.13471
     101 ->110         0.51485
     102 ->110        -0.19194
     103 ->110         0.14258

 Excited State  20:      Singlet-A      6.0569 eV  204.70 nm  f=0.1123  <S**2>=0.000
      96 ->104         0.19602
      97 ->104         0.47161
     101 ->106         0.13863
     102 ->105         0.31769
     102 ->107         0.13599
     102 ->111         0.14066

 Excited State  21:      Singlet-A      6.0775 eV  204.01 nm  f=0.0239  <S**2>=0.000
      96 ->104         0.44874
      97 ->104        -0.31666
     101 ->106         0.14557
     101 ->107         0.12144
     103 ->112         0.30343

 Excited State  22:      Singlet-A      6.1014 eV  203.21 nm  f=0.1314  <S**2>=0.000
      97 ->104         0.34126
     100 ->106        -0.15854
     100 ->107         0.17562
     101 ->106        -0.21825
     101 ->107        -0.16117
     102 ->105        -0.24431
     103 ->112         0.37364

 Excited State  23:      Singlet-A      6.1108 eV  202.89 nm  f=0.0079  <S**2>=0.000
      96 ->104        -0.39276
     100 ->105         0.13198
     100 ->106         0.13641
     100 ->107        -0.13146
     101 ->110        -0.10125
     102 ->105         0.14447
     103 ->112         0.44772

 Excited State  24:      Singlet-A      6.2549 eV  198.22 nm  f=0.0138  <S**2>=0.000
     103 ->113         0.41452
     103 ->114        -0.40052
     103 ->115         0.32888

 Excited State  25:      Singlet-A      6.3161 eV  196.30 nm  f=0.0015  <S**2>=0.000
      99 ->109        -0.17936
     100 ->109         0.16763
     102 ->109        -0.32563
     102 ->110         0.10742
     103 ->113         0.36352
     103 ->114         0.26129
     103 ->115        -0.22585
     103 ->116        -0.14467
     103 ->117         0.10375

 Excited State  26:      Singlet-A      6.3331 eV  195.77 nm  f=0.0099  <S**2>=0.000
      99 ->109         0.22001
     100 ->105        -0.10699
     100 ->109        -0.18239
     102 ->109         0.41959
     103 ->113         0.32470
     103 ->114         0.19389

 Excited State  27:      Singlet-A      6.3633 eV  194.84 nm  f=0.2710  <S**2>=0.000
      99 ->110         0.13773
     101 ->105         0.40405
     101 ->107         0.13546
     101 ->108         0.14678
     101 ->110        -0.11768
     102 ->106        -0.24525
     102 ->107        -0.21448
     102 ->110        -0.29206

 Excited State  28:      Singlet-A      6.3738 eV  194.52 nm  f=0.0774  <S**2>=0.000
      99 ->110        -0.16329
     100 ->105         0.11813
     101 ->105         0.23409
     101 ->110         0.19104
     102 ->106        -0.23420
     102 ->110         0.30529
     103 ->114        -0.10245
     103 ->115        -0.19053
     103 ->116         0.30174

 Excited State  29:      Singlet-A      6.3864 eV  194.14 nm  f=0.3744  <S**2>=0.000
     100 ->105         0.40454
     100 ->107         0.19154
     100 ->108        -0.15926
     102 ->105        -0.14031
     102 ->106        -0.22198
     102 ->107         0.28994
     102 ->109         0.11742
     103 ->114         0.13449
     103 ->116        -0.14079

 Excited State  30:      Singlet-A      6.4193 eV  193.14 nm  f=0.0248  <S**2>=0.000
      90 ->104        -0.15736
      92 ->104        -0.12354
      94 ->104         0.18209
      99 ->110         0.10221
     101 ->105        -0.11986
     102 ->110        -0.25344
     103 ->114        -0.10282
     103 ->115        -0.33557
     103 ->116         0.36520

 Excited State  31:      Singlet-A      6.4273 eV  192.90 nm  f=0.0083  <S**2>=0.000
      87 ->104        -0.13071
      89 ->104         0.11771
      90 ->104        -0.31430
      91 ->104        -0.15025
      92 ->104        -0.23644
      94 ->104         0.38307
     102 ->110         0.21275
     103 ->113        -0.10737
     103 ->115         0.11061
     103 ->116        -0.12376

 Excited State  32:      Singlet-A      6.5520 eV  189.23 nm  f=0.0064  <S**2>=0.000
     103 ->114         0.36280
     103 ->115         0.32369
     103 ->116         0.35100
     103 ->117        -0.14019
     103 ->118        -0.18221
     103 ->119        -0.17226

 Excited State  33:      Singlet-A      6.5673 eV  188.79 nm  f=0.0732  <S**2>=0.000
      99 ->105        -0.17423
     100 ->106        -0.14869
     100 ->107         0.16481
     100 ->108         0.16222
     100 ->111         0.14119
     101 ->106         0.11351
     101 ->107         0.10709
     101 ->111         0.14735
     102 ->106         0.14760
     102 ->108         0.47661

 Excited State  34:      Singlet-A      6.6510 eV  186.42 nm  f=0.0883  <S**2>=0.000
      95 ->104         0.18659
     100 ->105        -0.13075
     100 ->108        -0.20462
     100 ->111        -0.17653
     101 ->105         0.18284
     101 ->108        -0.23902
     101 ->111         0.33662
     102 ->107         0.19778
     102 ->111        -0.16536
     103 ->117         0.12158

 Excited State  35:      Singlet-A      6.6676 eV  185.95 nm  f=0.0276  <S**2>=0.000
      95 ->104         0.17701
     102 ->111         0.10470
     103 ->114         0.11093
     103 ->115         0.14949
     103 ->117         0.51320
     103 ->118         0.15974
     103 ->119        -0.18684

 Excited State  36:      Singlet-A      6.6790 eV  185.63 nm  f=0.0003  <S**2>=0.000
      91 ->104        -0.10985
      94 ->104        -0.11555
      95 ->104         0.55923
     102 ->111         0.18300
     103 ->117        -0.21495

 Excited State  37:      Singlet-A      6.7109 eV  184.75 nm  f=0.0751  <S**2>=0.000
     100 ->105         0.26305
     100 ->108         0.32665
     100 ->111         0.24807
     101 ->105         0.14614
     101 ->108        -0.13889
     101 ->111         0.20491
     102 ->106         0.13885
     102 ->108        -0.31059

 Excited State  38:      Singlet-A      6.7900 eV  182.60 nm  f=0.2315  <S**2>=0.000
      88 ->104         0.10181
      89 ->104        -0.18017
      91 ->104         0.21970
      94 ->104         0.13914
      99 ->108         0.15374
     101 ->105         0.15151
     101 ->108        -0.10543
     101 ->111         0.14298
     102 ->111         0.45339

 Excited State  39:      Singlet-A      6.8244 eV  181.68 nm  f=0.1112  <S**2>=0.000
      83 ->104        -0.13342
      86 ->104        -0.15345
      88 ->104         0.14376
      89 ->104        -0.27376
      91 ->104         0.28222
      94 ->104         0.21016
      95 ->104         0.27911
     102 ->111        -0.26071

 Excited State  40:      Singlet-A      6.9022 eV  179.63 nm  f=0.0031  <S**2>=0.000
      88 ->104         0.11038
      89 ->104         0.10449
      93 ->104         0.61908
      93 ->105         0.12733
     103 ->118         0.13939

 Excited State  41:      Singlet-A      6.9548 eV  178.27 nm  f=0.0053  <S**2>=0.000
      93 ->104        -0.16121
     102 ->118        -0.12127
     103 ->116         0.10861
     103 ->117        -0.11933
     103 ->118         0.54749
     103 ->119         0.12658
     103 ->121         0.22630

 Excited State  42:      Singlet-A      6.9778 eV  177.68 nm  f=0.0100  <S**2>=0.000
      99 ->105         0.60465
      99 ->107         0.16014
      99 ->111         0.10434
     102 ->108         0.19179

 Excited State  43:      Singlet-A      7.0279 eV  176.42 nm  f=0.0015  <S**2>=0.000
      81 ->104         0.10172
      90 ->104         0.27041
      91 ->104        -0.17045
      92 ->104         0.37896
      94 ->104         0.40807

 Excited State  44:      Singlet-A      7.0418 eV  176.07 nm  f=0.0078  <S**2>=0.000
      99 ->107         0.10818
     101 ->105        -0.12802
     101 ->106        -0.44278
     101 ->107         0.50456

 Excited State  45:      Singlet-A      7.0700 eV  175.37 nm  f=0.0019  <S**2>=0.000
     103 ->114         0.11691
     103 ->116         0.12112
     103 ->119         0.47238
     103 ->120        -0.32497
     103 ->125        -0.13891

 Excited State  46:      Singlet-A      7.0771 eV  175.19 nm  f=0.0016  <S**2>=0.000
     100 ->106         0.53136
     100 ->107         0.44441

 Excited State  47:      Singlet-A      7.1126 eV  174.32 nm  f=0.1478  <S**2>=0.000
      98 ->106        -0.12609
      98 ->107         0.15908
      99 ->106        -0.38184
      99 ->107         0.39442
     100 ->108        -0.15151
     101 ->106         0.10471
     101 ->107        -0.12024
     102 ->106         0.13239
     102 ->107        -0.15956

 Excited State  48:      Singlet-A      7.1496 eV  173.41 nm  f=0.0507  <S**2>=0.000
      90 ->104        -0.28689
      92 ->104         0.32078
      98 ->106         0.13543
      99 ->106        -0.29736
      99 ->107        -0.29607
     102 ->106        -0.13249

 Excited State  49:      Singlet-A      7.1544 eV  173.30 nm  f=0.0873  <S**2>=0.000
      89 ->104         0.19861
      90 ->104        -0.27002
      91 ->104         0.16923
      92 ->104         0.33539
      98 ->106        -0.10729
      99 ->106         0.28752
      99 ->107         0.22458
     102 ->106         0.10323

 Excited State  50:      Singlet-A      7.1723 eV  172.87 nm  f=0.0128  <S**2>=0.000
      86 ->104         0.20645
      88 ->104        -0.18031
      89 ->104         0.25228
      90 ->104         0.12065
      91 ->104         0.47062
      92 ->104        -0.10895
      99 ->106        -0.12616

 Excited State  51:      Singlet-A      7.2276 eV  171.54 nm  f=0.0052  <S**2>=0.000
      78 ->104        -0.11208
      82 ->104        -0.10565
      84 ->104        -0.13279
      85 ->104        -0.15290
      88 ->104         0.27932
      89 ->104         0.22396
      90 ->104         0.13978
      93 ->104        -0.13055
     103 ->117         0.15105
     103 ->118        -0.12840
     103 ->119         0.21978
     103 ->120         0.25011
     103 ->121         0.14625

 Excited State  52:      Singlet-A      7.2611 eV  170.75 nm  f=0.0025  <S**2>=0.000
      78 ->104         0.10002
      84 ->104         0.11171
      85 ->104         0.11064
      86 ->104         0.10475
      88 ->104        -0.27168
      89 ->104        -0.14888
     103 ->117         0.14566
     103 ->118        -0.10596
     103 ->119         0.20655
     103 ->120         0.36372
     103 ->121         0.16652

 Excited State  53:      Singlet-A      7.3197 eV  169.39 nm  f=0.0005  <S**2>=0.000
      98 ->109         0.24987
      99 ->109         0.44254
     102 ->109        -0.23182
     103 ->121        -0.26148
     103 ->122        -0.17101
     103 ->123        -0.11197

 Excited State  54:      Singlet-A      7.3298 eV  169.15 nm  f=0.0030  <S**2>=0.000
      99 ->109         0.16172
     103 ->120        -0.18886
     103 ->122         0.56709
     103 ->126        -0.15000

 Excited State  55:      Singlet-A      7.4309 eV  166.85 nm  f=0.0030  <S**2>=0.000
      97 ->110        -0.14023
      98 ->110        -0.26529
      99 ->108         0.10784
      99 ->109         0.10252
      99 ->110         0.40370
     101 ->108         0.10553
     102 ->110         0.19260
     103 ->121         0.27292

 Excited State  56:      Singlet-A      7.4433 eV  166.57 nm  f=0.0200  <S**2>=0.000
      96 ->107         0.10387
      98 ->105        -0.10668
      99 ->108         0.27003
      99 ->110        -0.16913
     101 ->105        -0.10669
     101 ->108         0.37627
     101 ->111         0.29926
     102 ->111        -0.13222

 Excited State  57:      Singlet-A      7.4663 eV  166.06 nm  f=0.0088  <S**2>=0.000
      96 ->107         0.12370
      98 ->105        -0.15259
      99 ->108         0.34079
     101 ->108        -0.33283
     101 ->109        -0.17105
     101 ->111        -0.23757
     102 ->111        -0.17229

 Excited State  58:      Singlet-A      7.4815 eV  165.72 nm  f=0.0041  <S**2>=0.000
      98 ->110         0.10842
      99 ->108        -0.14131
      99 ->109         0.14108
      99 ->110        -0.19270
     101 ->109         0.10641
     103 ->118        -0.10987
     103 ->120        -0.16417
     103 ->121         0.34116
     103 ->122        -0.11751
     103 ->123         0.16127
     103 ->124         0.13955
     103 ->125        -0.24147

 Excited State  59:      Singlet-A      7.5023 eV  165.26 nm  f=0.0002  <S**2>=0.000
     101 ->109         0.65913
     101 ->111        -0.15528

 Excited State  60:      Singlet-A      7.5121 eV  165.05 nm  f=0.0003  <S**2>=0.000
      81 ->104         0.11244
      85 ->104         0.11310
      87 ->104         0.55257
      88 ->104        -0.15616
      89 ->104         0.10216
      89 ->105         0.10507
      90 ->104        -0.18270

 Excited State  61:      Singlet-A      7.5734 eV  163.71 nm  f=0.0005  <S**2>=0.000
      85 ->104         0.12511
      86 ->104         0.20584
      88 ->104         0.17402
      97 ->106         0.13947
      97 ->107         0.14561
      98 ->108         0.10798
      99 ->111         0.22128
     100 ->108        -0.22166
     100 ->110        -0.19606
     100 ->111         0.31227

 Excited State  62:      Singlet-A      7.5876 eV  163.40 nm  f=0.0021  <S**2>=0.000
      85 ->104         0.12297
      86 ->104         0.21375
      88 ->104         0.21925
      96 ->106        -0.10756
      97 ->107         0.11629
      99 ->111         0.13745
     100 ->108         0.25320
     100 ->110         0.33949
     100 ->111        -0.29238

 Excited State  63:      Singlet-A      7.6039 eV  163.05 nm  f=0.0011  <S**2>=0.000
      86 ->104        -0.19469
      88 ->104        -0.20769
      99 ->111         0.16081
     100 ->110         0.48682
     100 ->111         0.24498
     102 ->112        -0.11853

 Excited State  64:      Singlet-A      7.6054 eV  163.02 nm  f=0.0023  <S**2>=0.000
      84 ->104         0.11054
      86 ->104         0.19860
      88 ->104         0.20170
      96 ->106         0.10752
      97 ->106        -0.11285
      97 ->107        -0.13187
      98 ->108        -0.11318
      99 ->111        -0.26054
     100 ->108        -0.13545
     100 ->110         0.30774
     100 ->111         0.23572
     102 ->112         0.15020
     103 ->123         0.10960

 Excited State  65:      Singlet-A      7.6214 eV  162.68 nm  f=0.0002  <S**2>=0.000
      99 ->110         0.16658
     103 ->120         0.14510
     103 ->121        -0.18861
     103 ->123         0.51892
     103 ->125        -0.18794

 Excited State  66:      Singlet-A      7.6339 eV  162.41 nm  f=0.0017  <S**2>=0.000
      96 ->109         0.53648
      97 ->109         0.15000
      99 ->109         0.15459
     100 ->109        -0.15009
     102 ->109        -0.10629
     103 ->123         0.12368

 Excited State  67:      Singlet-A      7.6433 eV  162.21 nm  f=0.0019  <S**2>=0.000
      80 ->104        -0.11105
      81 ->104        -0.12284
      83 ->104        -0.13879
      85 ->104         0.41484
      86 ->104        -0.23624
      87 ->105         0.12090
      89 ->104         0.31270
      96 ->109         0.11350
     103 ->123         0.10250

 Excited State  68:      Singlet-A      7.7001 eV  161.02 nm  f=0.0123  <S**2>=0.000
      96 ->109         0.13166
      97 ->110         0.24011
      98 ->105        -0.16871
      99 ->110         0.13909
     103 ->120         0.11856
     103 ->121        -0.10104
     103 ->122         0.11503
     103 ->123        -0.12094
     103 ->124         0.44384
     103 ->125        -0.16171

 The electronic state is 1-A.
 Alpha  occ. eigenvalues --  -89.56823 -89.56639 -14.67665 -14.67285 -10.51698
 Alpha  occ. eigenvalues --  -10.51286 -10.46938 -10.46815 -10.45696 -10.45611
 Alpha  occ. eigenvalues --  -10.44560 -10.44365 -10.43314 -10.43289 -10.42108
 Alpha  occ. eigenvalues --  -10.42035 -10.41829 -10.41714 -10.41334 -10.41322
 Alpha  occ. eigenvalues --  -10.41238 -10.41083 -10.40972 -10.40938 -10.40206
 Alpha  occ. eigenvalues --  -10.38891 -10.38732  -8.22279  -8.22095  -6.11626
 Alpha  occ. eigenvalues --   -6.11450  -6.11312  -6.11136  -6.10989  -6.10794
 Alpha  occ. eigenvalues --   -1.10323  -1.10171  -0.95663  -0.95562  -0.92732
 Alpha  occ. eigenvalues --   -0.92075  -0.90289  -0.87792  -0.85221  -0.84523
 Alpha  occ. eigenvalues --   -0.84088  -0.82265  -0.81688  -0.80746  -0.77312
 Alpha  occ. eigenvalues --   -0.72843  -0.72077  -0.71920  -0.69487  -0.68563
 Alpha  occ. eigenvalues --   -0.67278  -0.66322  -0.63827  -0.62618  -0.61803
 Alpha  occ. eigenvalues --   -0.57960  -0.57850  -0.57510  -0.56447  -0.54659
 Alpha  occ. eigenvalues --   -0.53903  -0.52400  -0.52368  -0.51404  -0.51188
 Alpha  occ. eigenvalues --   -0.50745  -0.50646  -0.49785  -0.48548  -0.48306
 Alpha  occ. eigenvalues --   -0.47957  -0.46457  -0.45471  -0.44921  -0.44826
 Alpha  occ. eigenvalues --   -0.44211  -0.43687  -0.43084  -0.42401  -0.41959
 Alpha  occ. eigenvalues --   -0.41509  -0.41350  -0.41096  -0.40900  -0.40222
 Alpha  occ. eigenvalues --   -0.39710  -0.39418  -0.39280  -0.39086  -0.38262
 Alpha  occ. eigenvalues --   -0.35775  -0.35701  -0.34067  -0.30665  -0.28605
 Alpha  occ. eigenvalues --   -0.28501  -0.27284  -0.21246
 Alpha virt. eigenvalues --   -0.09152  -0.01709  -0.01081  -0.01023   0.00444
 Alpha virt. eigenvalues --    0.00803   0.01255   0.01522   0.05826   0.06532
 Alpha virt. eigenvalues --    0.06824   0.07388   0.07697   0.08168   0.08694

 Mulliken charges:
               1
     1  C   -0.421421
     2  C   -0.017897
     3  C   -0.332353
     4  C    0.009709
     5  C    0.248825
     6  S    0.026654
     7  C    0.004497
     8  C    0.195615
     9  N    0.094318
    10  C   -0.198363
    11  C   -0.181295
    12  C   -0.123643
    13  C   -0.336136
    14  C   -0.175167
    15  C   -0.435493
    16  C   -0.465897
    17  C    0.260308
    18  S    0.059603
    19  C   -0.010019
    20  C    0.201599
    21  N    0.099991
    22  C   -0.198276
    23  C   -0.174707
    24  C   -0.129749
    25  C   -0.332835
    26  C   -0.208431
    27  C   -0.434467
    28  H    0.183853
    29  H    0.169495
    30  H    0.158507
    31  H    0.181205
    32  H    0.182476
    33  H    0.174268
    34  H    0.175221
    35  H    0.184346
    36  H    0.172158
    37  H    0.173721
    38  H    0.157514
    39  H    0.159104
    40  H    0.156447
    41  H    0.182757
    42  H    0.182342
    43  H    0.174873
    44  H    0.175744
    45  H    0.188785
    46  H    0.181592
    47  H    0.178918
    48  H    0.164162
    49  H    0.158693
    50  H    0.158851
 Sum of Mulliken charges =   1.00000

 Dipole moment (field-independent basis, Debye):
    X=             -1.0061    Y=             -0.1313    Z=             -1.0314  Tot=              1.4469
 Quadrupole moment (field-independent basis, Debye-Ang):
   XX=            -10.7576   YY=           -133.6927   ZZ=           -179.5636
   XY=            -21.5675   XZ=              1.2448   YZ=             -0.9282

 Normal termination of Gaussian 16 at Sun Nov  5 15:08:13 2023.
