 Gaussian 16, Revision C.02,
 Gaussian 16:  ES64L-G16RevC.02  7-Dec-2021

 ----------------------------------------------------------------------
 # td=(nstates=150) PBEPBE/def2TZVP IOp(3/76=1000003750) IOp(3/77=06250
 06250) IOp(3/78=1000010000) scrf(smd, solvent=ethanol)
 ----------------------------------------------------------------------

 ---
 A-4
 ---
 Symbolic Z-matrix:
 Charge =  1 Multiplicity = 1

                         Standard orientation:
 ---------------------------------------------------------------------
 Center     Atomic      Atomic             Coordinates (Angstroms)
 Number     Number       Type             X           Y           Z
 ---------------------------------------------------------------------
      1          6           0       -3.663712   -1.051948   -0.111557
      2          6           0       -2.389638   -0.479979   -0.083458
      3          6           0       -1.194967   -1.195004   -0.064041
      4          6           0        0.058349   -0.578322   -0.035613
      5          6           0       -4.855344   -0.323764   -0.124892
      6         16           0       -4.926662    1.436711   -0.060618
      7          6           0       -6.688233    1.402029   -0.083292
      8          6           0       -7.154955    0.079357   -0.139452
      9          7           0       -6.111858   -0.857268   -0.183590
     10          6           0       -7.565153    2.482703   -0.048916
     11          6           0       -8.934956    2.220220   -0.065794
     12          6           0       -9.407072    0.902760   -0.113224
     13          6           0       -8.529361   -0.179533   -0.148820
     14          6           0       -6.366284   -2.306872   -0.248314
     15          6           0       -6.467137   -2.955883    1.133259
     16          6           0        1.282162   -1.246091   -0.016052
     17          6           0        2.511127   -0.582889    0.011938
     18          6           0        3.741215   -1.244345   -0.008435
     19          6           0        5.052439   -0.749020    0.008808
     20         16           0        6.362590   -1.866987   -0.365292
     21          6           0        7.562983   -0.600806   -0.165520
     22          6           0        6.941017    0.612357    0.169846
     23          7           0        5.544832    0.495298    0.283261
     24          6           0        8.946272   -0.695535   -0.302110
     25          6           0        9.708364    0.454142   -0.100703
     26          6           0        9.092982    1.668657    0.228770
     27          6           0        7.709445    1.764545    0.366500
     28          6           0        4.732809    1.623027    0.770139
     29          6           0        4.282282    2.569892   -0.344236
     30          1           0       -3.731831   -2.134826   -0.113428
     31          1           0       -2.310249    0.607987   -0.076294
     32          1           0       -1.237617   -2.283434   -0.072611
     33          1           0        0.079156    0.512977   -0.027655
     34          1           0       -7.192939    3.501353   -0.008437
     35          1           0       -9.638205    3.046285   -0.038434
     36          1           0      -10.476042    0.714855   -0.119701
     37          1           0       -8.914544   -1.192671   -0.174894
     38          1           0       -7.289207   -2.442036   -0.816617
     39          1           0       -5.570728   -2.757498   -0.845647
     40          1           0       -6.666359   -4.026758    1.023381
     41          1           0       -5.536643   -2.835556    1.696522
     42          1           0       -7.280055   -2.514652    1.717995
     43          1           0        1.279871   -2.335280   -0.024232
     44          1           0        2.472390    0.502280    0.013643
     45          1           0        3.691082   -2.326769   -0.105404
     46          1           0        9.416627   -1.639291   -0.558710
     47          1           0       10.787594    0.405440   -0.203502
     48          1           0        9.700309    2.555856    0.377290
     49          1           0        7.251286    2.716142    0.611187
     50          1           0        3.887111    1.202637    1.316886
     51          1           0        5.342782    2.154926    1.505154
     52          1           0        3.668719    2.054906   -1.089954
     53          1           0        3.692500    3.387191    0.083941
     54          1           0        5.141488    3.005946   -0.862588
 ---------------------------------------------------------------------

 SCF Done:  E(RPBE+HF-PBE) =  -1872.41112666     A.U. after   13 cycles

 Excitation energies and oscillator strengths:

 Excited State   1:      Singlet-A      2.0768 eV  596.99 nm  f=2.8961  <S**2>=0.000
     109 -> 112        0.10053
     110 -> 111        0.70130
 This state for optimization and/or second-order correction.
 Total Energy, E(TD-HF/TD-DFT) =  -1872.33480465
 Copying the excited state density for this state as the 1-particle RhoCI density.

 Excited State   2:      Singlet-A      3.5718 eV  347.12 nm  f=0.0155  <S**2>=0.000
     109 -> 111        0.68901
     110 -> 112       -0.12385

 Excited State   3:      Singlet-A      3.9005 eV  317.86 nm  f=0.1144  <S**2>=0.000
     109 -> 111        0.12125
     110 -> 112        0.68764

 Excited State   4:      Singlet-A      4.1370 eV  299.69 nm  f=0.0129  <S**2>=0.000
     108 -> 111        0.62779
     108 -> 112        0.12441
     110 -> 113        0.17993
     110 -> 114        0.18228

 Excited State   5:      Singlet-A      4.1589 eV  298.12 nm  f=0.0146  <S**2>=0.000
     107 -> 111        0.63630
     107 -> 112       -0.12033
     110 -> 113       -0.16880
     110 -> 114        0.17711

 Excited State   6:      Singlet-A      4.3789 eV  283.14 nm  f=0.0758  <S**2>=0.000
     108 -> 111       -0.27194
     109 -> 114        0.10188
     110 -> 113        0.43339
     110 -> 114        0.44793

 Excited State   7:      Singlet-A      4.4010 eV  281.72 nm  f=0.0370  <S**2>=0.000
     107 -> 111        0.24189
     110 -> 113        0.41530
     110 -> 114       -0.39901
     110 -> 116        0.26599

 Excited State   8:      Singlet-A      4.4524 eV  278.47 nm  f=0.0051  <S**2>=0.000
     107 -> 111       -0.11096
     109 -> 116       -0.19043
     110 -> 113       -0.19107
     110 -> 114        0.17622
     110 -> 116        0.59073

 Excited State   9:      Singlet-A      4.5060 eV  275.15 nm  f=0.0002  <S**2>=0.000
     106 -> 111        0.68403

 Excited State  10:      Singlet-A      4.5237 eV  274.08 nm  f=0.0005  <S**2>=0.000
     109 -> 118        0.20693
     110 -> 118        0.65550

 Excited State  11:      Singlet-A      4.7219 eV  262.57 nm  f=0.0276  <S**2>=0.000
     109 -> 117        0.12291
     110 -> 115        0.66514
     110 -> 116        0.10202

 Excited State  12:      Singlet-A      4.9076 eV  252.64 nm  f=0.0054  <S**2>=0.000
     109 -> 115        0.12453
     110 -> 117        0.66623

 Excited State  13:      Singlet-A      5.1842 eV  239.16 nm  f=0.0007  <S**2>=0.000
     105 -> 111        0.66805

 Excited State  14:      Singlet-A      5.2595 eV  235.73 nm  f=0.0163  <S**2>=0.000
     109 -> 112        0.64891
     110 -> 111       -0.10103

 Excited State  15:      Singlet-A      5.5917 eV  221.73 nm  f=0.0142  <S**2>=0.000
     105 -> 111        0.14192
     105 -> 113       -0.10803
     106 -> 114       -0.21436
     108 -> 112        0.19981
     108 -> 113       -0.10196
     108 -> 114       -0.14271
     108 -> 115        0.16155
     108 -> 117        0.18061
     109 -> 113        0.36591
     109 -> 114        0.19211
     110 -> 114       -0.16520
     110 -> 117       -0.10148

 Excited State  16:      Singlet-A      5.6273 eV  220.32 nm  f=0.0316  <S**2>=0.000
     106 -> 113       -0.22454
     107 -> 112        0.17259
     107 -> 113        0.14915
     107 -> 114       -0.16415
     107 -> 115       -0.22459
     107 -> 117        0.10316
     109 -> 112       -0.14425
     109 -> 113       -0.14579
     109 -> 114        0.37887
     110 -> 113       -0.17151

 Excited State  17:      Singlet-A      5.6590 eV  219.09 nm  f=0.0002  <S**2>=0.000
     110 -> 119        0.67787

 Excited State  18:      Singlet-A      5.8430 eV  212.19 nm  f=0.0256  <S**2>=0.000
     103 -> 111        0.24279
     106 -> 112        0.11409
     107 -> 112       -0.22447
     107 -> 113        0.25387
     107 -> 114       -0.21367
     107 -> 116        0.19475
     108 -> 112        0.11198
     108 -> 113        0.13478
     108 -> 114        0.14630
     109 -> 113        0.18471
     109 -> 115       -0.21781
     110 -> 117        0.10383

 Excited State  19:      Singlet-A      5.8651 eV  211.39 nm  f=0.0817  <S**2>=0.000
     104 -> 111        0.31654
     107 -> 116       -0.27046
     108 -> 112        0.20330
     108 -> 113        0.24380
     108 -> 114        0.24357
     108 -> 118        0.10345
     109 -> 114        0.10704
     109 -> 116       -0.15401
     109 -> 117       -0.10688

 Excited State  20:      Singlet-A      5.8814 eV  210.81 nm  f=0.0538  <S**2>=0.000
     103 -> 116        0.11060
     104 -> 111        0.19561
     106 -> 116        0.12376
     107 -> 112        0.14288
     107 -> 113       -0.16670
     107 -> 114        0.14317
     107 -> 116        0.44034
     109 -> 116        0.21362
     109 -> 117       -0.11310
     110 -> 116        0.16060

 Excited State  21:      Singlet-A      5.9152 eV  209.60 nm  f=0.0052  <S**2>=0.000
     104 -> 118        0.13897
     106 -> 118       -0.14808
     108 -> 118        0.52106
     109 -> 118        0.31542
     110 -> 118       -0.20187

 Excited State  22:      Singlet-A      5.9952 eV  206.81 nm  f=0.0917  <S**2>=0.000
     102 -> 111        0.10381
     103 -> 111        0.35085
     104 -> 111        0.45222
     108 -> 113       -0.22303
     108 -> 114       -0.23889

 Excited State  23:      Singlet-A      6.0194 eV  205.97 nm  f=0.0285  <S**2>=0.000
     102 -> 111        0.14476
     103 -> 111        0.48991
     103 -> 112       -0.10863
     104 -> 111       -0.31641
     107 -> 112        0.13932
     107 -> 113       -0.18578
     107 -> 114        0.16082

 Excited State  24:      Singlet-A      6.0766 eV  204.04 nm  f=0.1847  <S**2>=0.000
     102 -> 111        0.47156
     103 -> 111       -0.10457
     107 -> 112       -0.10990
     108 -> 112       -0.31549
     109 -> 113        0.10795
     109 -> 114        0.24527
     110 -> 120        0.10602

 Excited State  25:      Singlet-A      6.1030 eV  203.15 nm  f=0.0733  <S**2>=0.000
     102 -> 111        0.25973
     103 -> 111       -0.12292
     107 -> 112       -0.28959
     108 -> 112        0.39513
     109 -> 113       -0.33003

 Excited State  26:      Singlet-A      6.1302 eV  202.25 nm  f=0.1753  <S**2>=0.000
     102 -> 111        0.33647
     107 -> 112        0.38775
     107 -> 113        0.10033
     107 -> 114       -0.11730
     108 -> 112        0.19503
     109 -> 113        0.13634
     109 -> 114       -0.27364
     110 -> 122        0.14860

 Excited State  27:      Singlet-A      6.1636 eV  201.16 nm  f=0.0172  <S**2>=0.000
     102 -> 111       -0.12419
     107 -> 116        0.14204
     108 -> 118       -0.14308
     109 -> 116       -0.14542
     110 -> 120        0.55119
     110 -> 122        0.16064
     110 -> 125       -0.19138

 Excited State  28:      Singlet-A      6.1976 eV  200.05 nm  f=0.0047  <S**2>=0.000
     106 -> 116        0.23897
     107 -> 116       -0.31692
     109 -> 116        0.45593
     110 -> 116        0.10719
     110 -> 120        0.19912
     110 -> 121       -0.13179
     110 -> 123        0.12377

 Excited State  29:      Singlet-A      6.2109 eV  199.62 nm  f=0.0120  <S**2>=0.000
     110 -> 120       -0.17058
     110 -> 121       -0.11534
     110 -> 122        0.55334
     110 -> 123        0.29660

 Excited State  30:      Singlet-A      6.2322 eV  198.94 nm  f=0.0124  <S**2>=0.000
     108 -> 118       -0.16897
     109 -> 116        0.12433
     109 -> 118        0.21062
     110 -> 121        0.45862
     110 -> 122        0.21957
     110 -> 123       -0.28713

 Excited State  31:      Singlet-A      6.2589 eV  198.09 nm  f=0.0032  <S**2>=0.000
     106 -> 118       -0.21877
     108 -> 118       -0.33354
     109 -> 118        0.45268
     110 -> 120       -0.13680
     110 -> 121       -0.21802
     110 -> 122       -0.10950
     110 -> 123        0.12077

 Excited State  32:      Singlet-A      6.3120 eV  196.43 nm  f=0.0001  <S**2>=0.000
      95 -> 111        0.10284
      96 -> 111        0.39395
      97 -> 111       -0.29581
      98 -> 111        0.13157
     100 -> 111        0.16073
     101 -> 111       -0.38686
     110 -> 124       -0.10238

 Excited State  33:      Singlet-A      6.3373 eV  195.64 nm  f=0.0648  <S**2>=0.000
     106 -> 112       -0.30201
     107 -> 113        0.21255
     107 -> 114       -0.18704
     107 -> 115        0.11896
     108 -> 113        0.12276
     108 -> 114        0.13651
     109 -> 115        0.34932
     110 -> 123        0.14651
     110 -> 124       -0.23256

 Excited State  34:      Singlet-A      6.3481 eV  195.31 nm  f=0.0195  <S**2>=0.000
     106 -> 112       -0.14663
     109 -> 115        0.14586
     109 -> 124        0.11518
     110 -> 122        0.14299
     110 -> 123       -0.21146
     110 -> 124        0.51237

 Excited State  35:      Singlet-A      6.4017 eV  193.68 nm  f=0.0022  <S**2>=0.000
     110 -> 121        0.35045
     110 -> 123        0.41302
     110 -> 124        0.25768
     110 -> 125        0.15994
     110 -> 126       -0.13173
     110 -> 128       -0.10990

 Excited State  36:      Singlet-A      6.4252 eV  192.97 nm  f=0.0180  <S**2>=0.000
     106 -> 112        0.40656
     106 -> 117       -0.10433
     108 -> 112        0.10090
     108 -> 115       -0.10512
     108 -> 117       -0.17318
     109 -> 114        0.10832
     109 -> 115        0.39478
     109 -> 117       -0.15975

 Excited State  37:      Singlet-A      6.4423 eV  192.45 nm  f=0.1862  <S**2>=0.000
     106 -> 112       -0.12956
     107 -> 112        0.15057
     107 -> 115        0.27541
     107 -> 117       -0.19230
     108 -> 113       -0.12093
     108 -> 114       -0.10636
     108 -> 115       -0.15180
     108 -> 117       -0.23813
     109 -> 114        0.25827
     109 -> 115       -0.20936
     109 -> 117       -0.20940

 Excited State  38:      Singlet-A      6.5079 eV  190.51 nm  f=0.0455  <S**2>=0.000
     105 -> 113       -0.10074
     106 -> 112        0.32843
     106 -> 114       -0.14035
     107 -> 112        0.12850
     107 -> 115        0.28995
     107 -> 117       -0.18436
     108 -> 115        0.14248
     108 -> 117        0.22437
     109 -> 113       -0.24743
     110 -> 125        0.16504

 Excited State  39:      Singlet-A      6.5142 eV  190.33 nm  f=0.0039  <S**2>=0.000
      95 -> 111        0.34593
      97 -> 111       -0.28105
      98 -> 111       -0.15087
     101 -> 111        0.25284
     110 -> 125       -0.29299

 Excited State  40:      Singlet-A      6.5253 eV  190.01 nm  f=0.0897  <S**2>=0.000
      95 -> 111        0.17697
      97 -> 111       -0.15737
     101 -> 111        0.13559
     109 -> 117       -0.25667
     110 -> 120        0.10853
     110 -> 122        0.11282
     110 -> 125        0.43428
     110 -> 126       -0.10157
     110 -> 128        0.12558

 Excited State  41:      Singlet-A      6.5458 eV  189.41 nm  f=0.2821  <S**2>=0.000
      95 -> 111        0.10989
     106 -> 115       -0.11136
     108 -> 112        0.14499
     108 -> 115       -0.14869
     108 -> 117       -0.22043
     109 -> 117        0.45843
     110 -> 125        0.17950

 Excited State  42:      Singlet-A      6.8028 eV  182.25 nm  f=0.0034  <S**2>=0.000
      95 -> 111       -0.13059
      96 -> 111       -0.15068
      98 -> 111       -0.14386
      99 -> 111       -0.30743
      99 -> 112        0.10094
     100 -> 111        0.48883
     101 -> 111       -0.11388
     110 -> 126       -0.13977

 Excited State  43:      Singlet-A      6.8133 eV  181.97 nm  f=0.0012  <S**2>=0.000
     100 -> 111        0.11088
     109 -> 126       -0.11158
     110 -> 126        0.42076
     110 -> 127        0.44487
     110 -> 129       -0.14059

 Excited State  44:      Singlet-A      6.8574 eV  180.80 nm  f=0.0054  <S**2>=0.000
      94 -> 111        0.13798
      98 -> 111       -0.25867
      99 -> 111        0.47685
     100 -> 111        0.24347
     110 -> 127       -0.16309

 Excited State  45:      Singlet-A      6.8822 eV  180.15 nm  f=0.0163  <S**2>=0.000
      99 -> 111       -0.24882
     106 -> 116        0.11533
     110 -> 126        0.35359
     110 -> 127       -0.35005
     110 -> 129       -0.14200
     110 -> 130        0.12770
     110 -> 132       -0.10856

 Excited State  46:      Singlet-A      6.8953 eV  179.81 nm  f=0.1174  <S**2>=0.000
      93 -> 111       -0.15961
      96 -> 111       -0.18311
      97 -> 111       -0.12291
      98 -> 111       -0.12887
     100 -> 111       -0.17147
     101 -> 111       -0.23841
     105 -> 113       -0.12128
     105 -> 114        0.12041
     106 -> 113        0.27802
     106 -> 114       -0.23744
     107 -> 115       -0.16070
     110 -> 126        0.11282
     110 -> 127       -0.13794

 Excited State  47:      Singlet-A      6.9019 eV  179.64 nm  f=0.1415  <S**2>=0.000
      91 -> 111        0.11912
      93 -> 111        0.15942
      96 -> 111        0.17722
      97 -> 111        0.12852
      98 -> 111        0.10158
     100 -> 111        0.23874
     101 -> 111        0.26335
     105 -> 113       -0.11418
     105 -> 114        0.11900
     106 -> 113        0.28072
     106 -> 114       -0.22898
     107 -> 115       -0.16942

 Excited State  48:      Singlet-A      6.9332 eV  178.83 nm  f=0.2331  <S**2>=0.000
     105 -> 113        0.16390
     105 -> 114        0.18099
     106 -> 113        0.36153
     106 -> 114        0.39834
     108 -> 115        0.16577
     108 -> 117        0.21665
     109 -> 113        0.12219
     109 -> 114        0.12849

 Excited State  49:      Singlet-A      6.9906 eV  177.36 nm  f=0.0081  <S**2>=0.000
      85 -> 111        0.11468
      88 -> 111        0.10113
      92 -> 111        0.12311
      93 -> 111       -0.15935
      95 -> 111       -0.25774
      96 -> 111       -0.13508
      97 -> 111       -0.28652
      98 -> 111        0.36549
      99 -> 111        0.16119
     101 -> 111        0.19404

 Excited State  50:      Singlet-A      7.0435 eV  176.03 nm  f=0.0613  <S**2>=0.000
     105 -> 112        0.51823
     106 -> 115        0.16640
     106 -> 116       -0.10470
     110 -> 128       -0.23638
     110 -> 129        0.10138

 Excited State  51:      Singlet-A      7.0626 eV  175.55 nm  f=0.0061  <S**2>=0.000
      86 -> 111        0.13016
      87 -> 111       -0.11852
      89 -> 111        0.11374
      93 -> 111        0.14721
      94 -> 111        0.23490
      95 -> 111       -0.23008
      97 -> 111       -0.26196
      98 -> 111       -0.10348
      99 -> 111       -0.13968
     110 -> 125       -0.10991
     110 -> 128        0.26823
     110 -> 129       -0.14652

 Excited State  52:      Singlet-A      7.0808 eV  175.10 nm  f=0.0109  <S**2>=0.000
      95 -> 111        0.18292
      97 -> 111        0.14311
      98 -> 111        0.17473
     105 -> 112        0.31304
     105 -> 116       -0.16158
     106 -> 116        0.24333
     109 -> 116       -0.12733
     110 -> 128        0.27769

 Excited State  53:      Singlet-A      7.1064 eV  174.47 nm  f=0.0007  <S**2>=0.000
     108 -> 113        0.51138
     108 -> 114       -0.46662

 Excited State  54:      Singlet-A      7.1092 eV  174.40 nm  f=0.0011  <S**2>=0.000
      95 -> 111       -0.13723
      96 -> 111        0.16424
      98 -> 111       -0.18522
     105 -> 116       -0.22853
     106 -> 116        0.35588
     109 -> 116       -0.19381
     110 -> 127        0.11533
     110 -> 128       -0.20297
     110 -> 129        0.20489

 Excited State  55:      Singlet-A      7.1250 eV  174.01 nm  f=0.0151  <S**2>=0.000
      91 -> 111       -0.10968
      93 -> 111       -0.13651
      94 -> 111       -0.19884
      95 -> 111       -0.14806
      96 -> 111        0.30815
      98 -> 111       -0.22727
     101 -> 111        0.11601
     106 -> 115        0.10832
     106 -> 116       -0.12807
     110 -> 127       -0.10490
     110 -> 128        0.22577
     110 -> 131       -0.12939

 Excited State  56:      Singlet-A      7.1365 eV  173.73 nm  f=0.0001  <S**2>=0.000
     107 -> 113        0.47312
     107 -> 114        0.51519

 Excited State  57:      Singlet-A      7.1414 eV  173.61 nm  f=0.0081  <S**2>=0.000
     105 -> 112       -0.12266
     106 -> 117       -0.16791
     109 -> 119        0.30164
     110 -> 126        0.10778
     110 -> 129        0.39867
     110 -> 131       -0.22809
     110 -> 134       -0.10968

 Excited State  58:      Singlet-A      7.1749 eV  172.80 nm  f=0.0338  <S**2>=0.000
     105 -> 115       -0.14436
     106 -> 115        0.17193
     106 -> 117       -0.23305
     109 -> 119        0.37089
     110 -> 129       -0.27131
     110 -> 131        0.20537

 Excited State  59:      Singlet-A      7.1787 eV  172.71 nm  f=0.0007  <S**2>=0.000
      86 -> 111        0.13756
      87 -> 111       -0.16826
      88 -> 111        0.13946
      89 -> 111        0.22042
      90 -> 111       -0.23191
      91 -> 111       -0.16538
      93 -> 111       -0.20600
      94 -> 111        0.30554
      95 -> 112       -0.11799
      96 -> 111        0.20210
      97 -> 111        0.19964
      98 -> 111        0.14974

 Excited State  60:      Singlet-A      7.2102 eV  171.96 nm  f=0.0007  <S**2>=0.000
     105 -> 118        0.30167
     106 -> 118        0.44583
     109 -> 118        0.22288
     110 -> 131       -0.27912

 Excited State  61:      Singlet-A      7.2615 eV  170.74 nm  f=0.0099  <S**2>=0.000
     105 -> 112       -0.13678
     105 -> 117        0.15708
     106 -> 115        0.33283
     106 -> 116        0.11216
     106 -> 118       -0.16118
     109 -> 117        0.12949
     109 -> 119       -0.12325
     110 -> 128       -0.17038
     110 -> 129       -0.12851
     110 -> 130        0.13361
     110 -> 131       -0.22435
     110 -> 132        0.21790
     110 -> 133       -0.13781

 Excited State  62:      Singlet-A      7.2750 eV  170.42 nm  f=0.0146  <S**2>=0.000
     105 -> 112       -0.13615
     105 -> 117        0.15265
     106 -> 115        0.35260
     106 -> 118        0.13649
     109 -> 117        0.12632
     109 -> 119       -0.20497
     110 -> 128        0.10984
     110 -> 129        0.19115
     110 -> 130       -0.14836
     110 -> 131        0.20985
     110 -> 132       -0.15672
     110 -> 133        0.12194

 Excited State  63:      Singlet-A      7.4105 eV  167.31 nm  f=0.0170  <S**2>=0.000
     104 -> 114       -0.10307
     105 -> 115        0.17409
     106 -> 117        0.34627
     108 -> 115        0.26505
     108 -> 117       -0.16997
     109 -> 115        0.11798
     109 -> 119        0.33000

 Excited State  64:      Singlet-A      7.4304 eV  166.86 nm  f=0.0143  <S**2>=0.000
     105 -> 115       -0.10975
     106 -> 117       -0.20795
     108 -> 115        0.48871
     108 -> 117       -0.28802
     108 -> 119       -0.15858
     109 -> 119       -0.14200

 Excited State  65:      Singlet-A      7.4598 eV  166.20 nm  f=0.0037  <S**2>=0.000
      85 -> 111        0.12201
      86 -> 111       -0.26873
      87 -> 111        0.20416
      89 -> 111       -0.16507
      90 -> 111        0.10482
      91 -> 111        0.14776
      93 -> 111       -0.19631
      94 -> 111        0.35842
      94 -> 112       -0.10089
     110 -> 130        0.20573

 Excited State  66:      Singlet-A      7.4643 eV  166.10 nm  f=0.0047  <S**2>=0.000
      94 -> 111       -0.12849
     106 -> 118        0.10948
     110 -> 128        0.16613
     110 -> 129        0.11312
     110 -> 130        0.47077
     110 -> 131        0.14675
     110 -> 132        0.13939
     110 -> 134        0.11443
     110 -> 135        0.16613
     110 -> 136        0.10853

 Excited State  67:      Singlet-A      7.4933 eV  165.46 nm  f=0.0016  <S**2>=0.000
      86 -> 111        0.10938
      90 -> 111        0.15171
      91 -> 111        0.13153
      92 -> 111        0.49354
      93 -> 112        0.11005
      95 -> 111        0.20074
     110 -> 132        0.16096

 Excited State  68:      Singlet-A      7.5003 eV  165.31 nm  f=0.0031  <S**2>=0.000
      92 -> 111       -0.17996
      94 -> 111        0.10517
     110 -> 126        0.10504
     110 -> 127       -0.14585
     110 -> 130       -0.22816
     110 -> 131        0.15164
     110 -> 132        0.45450
     110 -> 134        0.13746

 Excited State  69:      Singlet-A      7.5305 eV  164.64 nm  f=0.0036  <S**2>=0.000

 The electronic state is 1-A.
 Alpha  occ. eigenvalues --  -89.56726 -89.56548 -14.67529 -14.67176 -10.51554
 Alpha  occ. eigenvalues --  -10.51150 -10.46880 -10.46763 -10.45636 -10.45551
 Alpha  occ. eigenvalues --  -10.44491 -10.44318 -10.43123 -10.43087 -10.42405
 Alpha  occ. eigenvalues --  -10.42062 -10.41988 -10.41770 -10.41667 -10.41293
 Alpha  occ. eigenvalues --  -10.41270 -10.41201 -10.41037 -10.40926 -10.40880
 Alpha  occ. eigenvalues --  -10.40050 -10.40031 -10.38850 -10.38705  -8.22181
 Alpha  occ. eigenvalues --   -8.22004  -6.11528  -6.11359  -6.11216  -6.11046
 Alpha  occ. eigenvalues --   -6.10889  -6.10702  -1.10188  -1.10065  -0.95598
 Alpha  occ. eigenvalues --   -0.95501  -0.92575  -0.92172  -0.90740  -0.88893
 Alpha  occ. eigenvalues --   -0.86499  -0.84725  -0.84387  -0.83577  -0.81955
 Alpha  occ. eigenvalues --   -0.81513  -0.80224  -0.76989  -0.73027  -0.72019
 Alpha  occ. eigenvalues --   -0.71885  -0.69646  -0.68766  -0.67357  -0.66572
 Alpha  occ. eigenvalues --   -0.64612  -0.62726  -0.62066  -0.61497  -0.57892
 Alpha  occ. eigenvalues --   -0.57769  -0.57604  -0.55715  -0.55344  -0.53622
 Alpha  occ. eigenvalues --   -0.52443  -0.52294  -0.52108  -0.51191  -0.51024
 Alpha  occ. eigenvalues --   -0.50642  -0.50352  -0.49266  -0.48287  -0.47957
 Alpha  occ. eigenvalues --   -0.47604  -0.46455  -0.44988  -0.44900  -0.44439
 Alpha  occ. eigenvalues --   -0.44303  -0.43581  -0.43264  -0.42320  -0.42131
 Alpha  occ. eigenvalues --   -0.41665  -0.41439  -0.41208  -0.41039  -0.40391
 Alpha  occ. eigenvalues --   -0.39996  -0.39562  -0.39447  -0.39239  -0.39116
 Alpha  occ. eigenvalues --   -0.39008  -0.36131  -0.35691  -0.35550  -0.32494
 Alpha  occ. eigenvalues --   -0.29698  -0.28546  -0.28447  -0.26119  -0.20513
 Alpha virt. eigenvalues --   -0.09732  -0.02934  -0.01046  -0.01021   0.00277
 Alpha virt. eigenvalues --    0.00850   0.01072   0.01330   0.04371   0.06531
 Alpha virt. eigenvalues --    0.06689   0.07207   0.07632   0.07769   0.07973

 Mulliken charges:
               1
     1  C   -0.409987
     2  C   -0.035114
     3  C   -0.272820
     4  C   -0.061721
     5  C    0.244877
     6  S    0.026186
     7  C    0.002558
     8  C    0.195762
     9  N    0.093109
    10  C   -0.197697
    11  C   -0.182084
    12  C   -0.124007
    13  C   -0.336432
    14  C   -0.176321
    15  C   -0.434737
    16  C   -0.294846
    17  C    0.002083
    18  C   -0.449910
    19  C    0.253772
    20  S    0.056967
    21  C   -0.011493
    22  C    0.201490
    23  N    0.099090
    24  C   -0.197003
    25  C   -0.176066
    26  C   -0.129997
    27  C   -0.333415
    28  C   -0.207406
    29  C   -0.434619
    30  H    0.183716
    31  H    0.165027
    32  H    0.158806
    33  H    0.168878
    34  H    0.182346
    35  H    0.173991
    36  H    0.175042
    37  H    0.184082
    38  H    0.173383
    39  H    0.171916
    40  H    0.158970
    41  H    0.157271
    42  H    0.156299
    43  H    0.158203
    44  H    0.179113
    45  H    0.181885
    46  H    0.181741
    47  H    0.174641
    48  H    0.175411
    49  H    0.188470
    50  H    0.181449
    51  H    0.178403
    52  H    0.158458
    53  H    0.158499
    54  H    0.163785
 Sum of Mulliken charges =   1.00000

 Dipole moment (field-independent basis, Debye):
    X=             -0.9801    Y=              0.4198    Z=              0.6344  Tot=              1.2406
 Quadrupole moment (field-independent basis, Debye-Ang):
   XX=             38.5187   YY=           -144.7045   ZZ=           -192.9168
   XY=             27.3041   XZ=              4.8093   YZ=              5.2560

 Normal termination of Gaussian 16 at Sun Nov  5 15:26:07 2023.
