 Gaussian 16, Revision C.02,
 Gaussian 16:  ES64L-G16RevC.02  7-Dec-2021

 ----------------------------------------------------------------------
 # td=(nstates=150) PBEPBE/def2TZVP IOp(3/76=1000003750) IOp(3/77=06250
 06250) IOp(3/78=1000010000) scrf(smd, solvent=ethanol)
 ----------------------------------------------------------------------

 ---
 A-2
 ---
 Symbolic Z-matrix:
 Charge =  1 Multiplicity = 1

                         Standard orientation:
 ---------------------------------------------------------------------
 Center     Atomic      Atomic             Coordinates (Angstroms)
 Number     Number       Type             X           Y           Z
 ---------------------------------------------------------------------
      1          6           0        1.185932    1.124188    0.259065
      2          6           0       -0.064042    0.518894    0.184736
      3          6           0       -1.255062    1.232433    0.206071
      4          6           0       -2.576908    0.775971    0.134368
      5          6           0        2.392634    0.431471    0.171283
      6         16           0       -3.827667    1.970009   -0.187075
      7          6           0       -5.077877    0.744792   -0.134775
      8          6           0       -4.509195   -0.508640    0.113846
      9          7           0       -3.118372   -0.458179    0.279721
     10         16           0        2.505198   -1.300121   -0.125106
     11          6           0        4.260315   -1.225762   -0.102553
     12          6           0        4.688784    0.087010    0.119416
     13          7           0        3.627512    0.981655    0.287411
     14          6           0        5.159317   -2.267461   -0.279503
     15          6           0        6.517913   -1.973596   -0.237257
     16          6           0        6.953940   -0.663841   -0.025333
     17          6           0        6.051566    0.378213    0.153458
     18          6           0       -6.446804    0.904176   -0.304215
     19          6           0       -7.251229   -0.226106   -0.226408
     20          6           0       -6.689747   -1.482485    0.014868
     21          6           0       -5.320051   -1.640504    0.186250
     22          6           0        3.847144    2.415669    0.554580
     23          6           0        3.911762    3.249637   -0.717632
     24          6           0       -2.369369   -1.660308    0.692423
     25          6           0       -1.918854   -2.522991   -0.479110
     26          1           0        1.228852    2.199196    0.376562
     27          1           0       -0.096636   -0.556945    0.072235
     28          1           0       -1.165193    2.314370    0.224199
     29          1           0        4.813961   -3.279951   -0.448352
     30          1           0        7.240415   -2.768718   -0.373960
     31          1           0        8.015538   -0.449707   -0.002068
     32          1           0        6.406822    1.388085    0.306065
     33          1           0       -6.875736    1.880738   -0.491225
     34          1           0       -8.321880   -0.129159   -0.357431
     35          1           0       -7.330326   -2.354283    0.067360
     36          1           0       -4.901973   -2.621689    0.363736
     37          1           0        3.048585    2.754296    1.212168
     38          1           0        4.772710    2.494849    1.122044
     39          1           0        4.082538    4.295496   -0.452515
     40          1           0        4.728911    2.924468   -1.364544
     41          1           0        2.978199    3.187215   -1.279982
     42          1           0       -1.531667   -1.329317    1.302601
     43          1           0       -3.027666   -2.224702    1.351768
     44          1           0       -1.276100   -1.972556   -1.168349
     45          1           0       -1.359149   -3.379171   -0.096017
     46          1           0       -2.775672   -2.899604   -1.040801
 ---------------------------------------------------------------------

 SCF Done:  E(RPBE+HF-PBE) =  -1717.72572045     A.U. after   13 cycles

 Excitation energies and oscillator strengths:

 Excited State   1:      Singlet-A      2.6999 eV  459.21 nm  f=1.7466  <S**2>=0.000
      96 -> 97         0.70285
 This state for optimization and/or second-order correction.
 Total Energy, E(TD-HF/TD-DFT) =  -1717.62650024
 Copying the excited state density for this state as the 1-particle RhoCI density.

 Excited State   2:      Singlet-A      4.3242 eV  286.72 nm  f=0.0452  <S**2>=0.000
      93 -> 97         0.10479
      94 -> 97         0.28995
      95 -> 97         0.57717
      96 -> 98         0.16632
      96 -> 99         0.11594

 Excited State   3:      Singlet-A      4.3839 eV  282.81 nm  f=0.0180  <S**2>=0.000
      93 -> 97         0.46461
      94 -> 97        -0.40765
      95 -> 97         0.13845
      96 -> 99        -0.24240

 Excited State   4:      Singlet-A      4.4535 eV  278.40 nm  f=0.0181  <S**2>=0.000
      93 -> 97         0.42211
      94 -> 97         0.36587
      95 -> 97        -0.34962
      96 -> 98         0.19530

 Excited State   5:      Singlet-A      4.5881 eV  270.23 nm  f=0.0024  <S**2>=0.000
      95 ->103        -0.13727
      96 -> 98         0.12702
      96 ->101         0.64630

 Excited State   6:      Singlet-A      4.6682 eV  265.59 nm  f=0.1037  <S**2>=0.000
      93 -> 97        -0.10861
      94 -> 97        -0.28228
      96 -> 98         0.45267
      96 -> 99         0.39520

 Excited State   7:      Singlet-A      4.7068 eV  263.42 nm  f=0.0951  <S**2>=0.000
      93 -> 97         0.21538
      94 -> 97        -0.12692
      96 -> 98        -0.39095
      96 -> 99         0.45957
      96 ->101         0.14378

 Excited State   8:      Singlet-A      4.7457 eV  261.25 nm  f=0.0017  <S**2>=0.000
      95 ->101        -0.15115
      96 ->100         0.23424
      96 ->103         0.61812

 Excited State   9:      Singlet-A      4.8135 eV  257.58 nm  f=0.0208  <S**2>=0.000
      93 -> 97         0.11092
      96 ->100         0.62420
      96 ->101         0.11914
      96 ->103        -0.22441

 Excited State  10:      Singlet-A      5.1041 eV  242.91 nm  f=0.0522  <S**2>=0.000
      93 -> 98         0.10632
      94 -> 99         0.10616
      95 ->100        -0.11700
      96 ->102         0.64212

 Excited State  11:      Singlet-A      5.2555 eV  235.92 nm  f=0.0469  <S**2>=0.000
      92 -> 97         0.66086
      96 ->102         0.14575

 Excited State  12:      Singlet-A      5.5681 eV  222.67 nm  f=0.0416  <S**2>=0.000
      93 -> 99         0.10846
      95 ->102        -0.10399
      96 ->104         0.65484

 Excited State  13:      Singlet-A      5.8593 eV  211.60 nm  f=0.1441  <S**2>=0.000
      92 -> 97        -0.12464
      92 -> 98         0.14326
      93 -> 98        -0.25259
      93 -> 99         0.32878
      93 ->100         0.24150
      93 ->102        -0.13817
      94 ->100        -0.17637
      95 -> 98         0.10452
      95 -> 99        -0.11768
      95 ->100         0.11651
      95 ->102        -0.11773
      96 -> 98        -0.14364
      96 ->102         0.10895
      96 ->104        -0.17257

 Excited State  14:      Singlet-A      5.8821 eV  210.78 nm  f=0.1834  <S**2>=0.000
      92 -> 97         0.14163
      92 -> 98         0.10736
      92 -> 99         0.13047
      93 -> 98         0.16444
      94 -> 98         0.27440
      94 -> 99         0.31576
      94 ->100        -0.15198
      94 ->102        -0.17633
      95 -> 98        -0.10710
      95 ->100        -0.20494
      95 ->102        -0.15917
      96 -> 98        -0.10573
      96 -> 99        -0.12157
      96 ->102        -0.15624
      96 ->104        -0.12286

 Excited State  15:      Singlet-A      5.9729 eV  207.58 nm  f=0.0025  <S**2>=0.000
      90 ->101         0.13476
      93 ->101         0.47788
      93 ->103        -0.27035
      94 ->101        -0.28156
      95 ->101         0.13720
      95 ->103        -0.17059
      96 ->101        -0.13709

 Excited State  16:      Singlet-A      6.0066 eV  206.41 nm  f=0.0001  <S**2>=0.000
      91 ->103         0.11917
      93 ->101         0.15524
      94 ->101         0.22584
      94 ->103         0.43667
      95 ->101         0.25069
      95 ->103         0.30967
      96 ->103         0.16277

 Excited State  17:      Singlet-A      6.0651 eV  204.42 nm  f=0.0908  <S**2>=0.000
      92 -> 99        -0.12420
      93 ->100         0.10949
      94 -> 98         0.22659
      94 -> 99         0.21633
      94 ->100         0.16955
      94 ->102         0.23227
      95 -> 98         0.38653
      95 -> 99         0.29529

 Excited State  18:      Singlet-A      6.0745 eV  204.11 nm  f=0.0467  <S**2>=0.000
      90 -> 97        -0.11712
      92 -> 98        -0.10813
      93 -> 98        -0.26253
      93 -> 99         0.22887
      93 ->100        -0.24052
      93 ->102         0.21330
      94 -> 98         0.22858
      94 -> 99        -0.15562
      95 -> 98        -0.17891
      95 -> 99         0.28191

 Excited State  19:      Singlet-A      6.2078 eV  199.72 nm  f=0.0228  <S**2>=0.000
      90 -> 97        -0.14355
      91 -> 97         0.65271

 Excited State  20:      Singlet-A      6.2331 eV  198.91 nm  f=0.0261  <S**2>=0.000
      89 -> 97         0.10821
      90 -> 97         0.63771
      91 -> 97         0.11796
      93 -> 98        -0.10799

 Excited State  21:      Singlet-A      6.2799 eV  197.43 nm  f=0.0016  <S**2>=0.000
      90 -> 97         0.10748
      96 ->105         0.62462
      96 ->107         0.16813
      96 ->108         0.16606

 Excited State  22:      Singlet-A      6.4102 eV  193.42 nm  f=0.0026  <S**2>=0.000
      96 ->106         0.57276
      96 ->107        -0.33147

 Excited State  23:      Singlet-A      6.4673 eV  191.71 nm  f=0.0109  <S**2>=0.000
      89 -> 97         0.63924
      96 ->107         0.10315

 Excited State  24:      Singlet-A      6.5023 eV  190.68 nm  f=0.0146  <S**2>=0.000
      89 -> 97         0.11523
      92 ->101         0.13408
      92 ->103        -0.21316
      93 ->101        -0.29469
      94 ->101        -0.22789
      95 ->101         0.47184

 Excited State  25:      Singlet-A      6.5772 eV  188.51 nm  f=0.0330  <S**2>=0.000
      92 ->101        -0.24450
      92 ->103        -0.10538
      93 ->100        -0.13098
      93 ->103        -0.21506
      94 ->103        -0.27840
      95 ->100         0.10886
      95 ->103         0.40047
      96 ->105        -0.10962
      96 ->107         0.13725
      96 ->108         0.11052
      96 ->109         0.11601

 Excited State  26:      Singlet-A      6.5971 eV  187.94 nm  f=0.5562  <S**2>=0.000
      92 -> 99         0.11204
      93 -> 98         0.21988
      93 ->100         0.14031
      93 ->102        -0.10094
      94 -> 98         0.17183
      94 ->102         0.16638
      95 -> 98        -0.25176
      95 ->100         0.44727
      96 ->106        -0.10268

 Excited State  27:      Singlet-A      6.6180 eV  187.34 nm  f=0.0638  <S**2>=0.000
      93 ->100         0.25217
      93 ->102        -0.16027
      94 -> 99        -0.16851
      94 ->100        -0.23277
      94 ->102        -0.13023
      95 -> 99         0.39009
      95 ->100        -0.17939
      95 ->103         0.11162
      96 ->106        -0.11611
      96 ->107        -0.11546

 Excited State  28:      Singlet-A      6.6337 eV  186.90 nm  f=0.4111  <S**2>=0.000
      93 ->100         0.31699
      94 -> 98         0.10274
      94 ->100         0.20119
      94 ->102         0.12154
      95 -> 98        -0.24961
      95 ->100        -0.20838
      96 ->106         0.20460
      96 ->107         0.32284

 Excited State  29:      Singlet-A      6.6644 eV  186.04 nm  f=0.1365  <S**2>=0.000
      78 -> 97        -0.10372
      84 -> 97         0.23382
      86 -> 97        -0.14016
      88 -> 97         0.35603
      89 -> 97        -0.12285
      94 ->100        -0.22730
      95 -> 99         0.14486
      95 ->100         0.12456
      96 ->106         0.10875
      96 ->107         0.26183

 Excited State  30:      Singlet-A      6.6767 eV  185.70 nm  f=0.0687  <S**2>=0.000
      78 -> 97        -0.10734
      84 -> 97         0.21246
      86 -> 97        -0.14845
      88 -> 97         0.33052
      94 ->100         0.15623
      95 ->103         0.14791
      96 ->106        -0.20229
      96 ->107        -0.31897

 Excited State  31:      Singlet-A      6.7900 eV  182.60 nm  f=0.0014  <S**2>=0.000
      95 ->103        -0.13192
      96 ->105        -0.13955
      96 ->108         0.47239
      96 ->109         0.24969
      96 ->110        -0.26996
      96 ->111         0.20970

 Excited State  32:      Singlet-A      6.8643 eV  180.62 nm  f=0.0500  <S**2>=0.000
      92 ->100        -0.19453
      93 -> 99         0.13456
      94 -> 99         0.13517
      94 ->100        -0.14568
      94 ->102        -0.15009
      94 ->104         0.14556
      95 ->102         0.53240

 Excited State  33:      Singlet-A      6.9590 eV  178.16 nm  f=0.0046  <S**2>=0.000
      94 -> 98        -0.15475
      94 -> 99         0.15274
      94 ->102         0.11226
      95 -> 98        -0.11150
      96 ->109         0.43813
      96 ->110         0.33797
      96 ->111         0.16904

 Excited State  34:      Singlet-A      6.9657 eV  177.99 nm  f=0.0152  <S**2>=0.000
      93 -> 98        -0.11002
      94 -> 98        -0.32825
      94 -> 99         0.35078
      94 ->102         0.18728
      94 ->104         0.10328
      95 -> 98        -0.23558
      95 -> 99         0.16090
      95 ->104         0.12036
      96 ->109        -0.19472
      96 ->110        -0.18943

 Excited State  35:      Singlet-A      7.0027 eV  177.05 nm  f=0.0011  <S**2>=0.000
      93 -> 98         0.43580
      93 -> 99         0.45607
      94 -> 98        -0.22796
      94 -> 99        -0.10455
      95 -> 99         0.10746

 Excited State  36:      Singlet-A      7.0178 eV  176.67 nm  f=0.0003  <S**2>=0.000
      87 -> 97         0.63974
      87 ->100         0.10311
      96 ->110        -0.12526

 Excited State  37:      Singlet-A      7.0293 eV  176.38 nm  f=0.0179  <S**2>=0.000
      93 -> 98         0.13707
      93 ->100        -0.17587
      93 ->104         0.16667
      94 -> 98         0.13916
      94 -> 99        -0.22932
      94 ->100        -0.28058
      94 ->102         0.31851
      94 ->104         0.16759
      95 ->100        -0.21752
      95 ->104         0.23004

 Excited State  38:      Singlet-A      7.0643 eV  175.51 nm  f=0.0352  <S**2>=0.000
      93 ->100         0.20081
      93 ->102         0.43020
      93 ->104        -0.25846
      94 ->100        -0.23570
      94 ->104         0.23617
      96 ->110         0.12415

 Excited State  39:      Singlet-A      7.1176 eV  174.19 nm  f=0.0137  <S**2>=0.000
      87 -> 97         0.10671
      93 ->102        -0.13177
      96 ->108         0.32455
      96 ->109        -0.24055
      96 ->110         0.40906
      96 ->112        -0.15418
      96 ->113        -0.16929

 Excited State  40:      Singlet-A      7.1333 eV  173.81 nm  f=0.0017  <S**2>=0.000
      80 -> 97        -0.10730
      85 -> 97         0.31038
      86 -> 97         0.40416
      88 -> 97         0.39139

 Excited State  41:      Singlet-A      7.2549 eV  170.90 nm  f=0.1255  <S**2>=0.000
      92 ->102        -0.21007
      93 ->104        -0.20104
      94 ->104        -0.19642
      95 ->104         0.49174
      96 ->112         0.12121

 Excited State  42:      Singlet-A      7.2615 eV  170.74 nm  f=0.0016  <S**2>=0.000
      81 -> 97         0.12090
      83 -> 97         0.14890
      84 -> 97         0.42390
      85 -> 97         0.43794
      88 -> 97        -0.22059

 Excited State  43:      Singlet-A      7.2963 eV  169.93 nm  f=0.0023  <S**2>=0.000
      84 -> 97         0.25236
      85 -> 97        -0.36450
      86 -> 97         0.45532

 Excited State  44:      Singlet-A      7.3223 eV  169.32 nm  f=0.0020  <S**2>=0.000
      86 -> 97        -0.13823
      95 ->104         0.12995
      96 ->108        -0.20388
      96 ->111         0.38044
      96 ->112        -0.36654
      96 ->113        -0.11771

 Excited State  45:      Singlet-A      7.3895 eV  167.78 nm  f=0.0002  <S**2>=0.000
      93 ->101         0.11209
      94 ->101         0.50467
      94 ->103        -0.30179
      95 ->101         0.27822
      95 ->103        -0.18738

 Excited State  46:      Singlet-A      7.4100 eV  167.32 nm  f=0.0090  <S**2>=0.000
      80 -> 97        -0.27572
      82 -> 97        -0.26568
      83 -> 97         0.27665
      86 -> 97        -0.12597
      87 -> 97         0.12612
      92 -> 98        -0.20492
      92 -> 99         0.19094
      96 ->109         0.10474
      96 ->111        -0.19713

 Excited State  47:      Singlet-A      7.4200 eV  167.09 nm  f=0.0003  <S**2>=0.000
      93 ->101         0.31470
      93 ->103         0.55119
      94 ->103        -0.22687
      95 ->103         0.11743

 Excited State  48:      Singlet-A      7.4267 eV  166.94 nm  f=0.0603  <S**2>=0.000
      80 -> 97        -0.16997
      82 -> 97        -0.18280
      83 -> 97         0.12535
      92 -> 98         0.40734
      92 -> 99        -0.33945
      95 -> 98        -0.10086
      95 -> 99         0.12486

 Excited State  49:      Singlet-A      7.4451 eV  166.53 nm  f=0.0819  <S**2>=0.000
      89 -> 98        -0.10392
      92 -> 98         0.39240
      92 -> 99         0.46091
      95 -> 98         0.14431
      95 -> 99         0.12191

 Excited State  50:      Singlet-A      7.4852 eV  165.64 nm  f=0.0036  <S**2>=0.000
      82 -> 97        -0.12990
      96 ->109        -0.20431
      96 ->111         0.36551
      96 ->112         0.40541
      96 ->113         0.21359

 Excited State  51:      Singlet-A      7.5325 eV  164.60 nm  f=0.0128  <S**2>=0.000
      92 ->100        -0.22348
      94 ->100         0.14935
      94 ->102        -0.23080
      94 ->104         0.43434
      95 ->100         0.10409
      95 ->102        -0.23987
      95 ->104         0.20415

 Excited State  52:      Singlet-A      7.5568 eV  164.07 nm  f=0.0003  <S**2>=0.000
      90 ->101         0.11883
      91 -> 99        -0.10714
      92 ->100         0.48767
      92 ->101        -0.11638
      94 ->102        -0.19827
      94 ->104         0.18931
      95 ->102         0.12382

 Excited State  53:      Singlet-A      7.5826 eV  163.51 nm  f=0.0019  <S**2>=0.000
      76 -> 97         0.14903
      78 -> 97         0.15557
      80 -> 97        -0.23910
      82 -> 97         0.37760
      85 -> 97        -0.10235
      86 -> 97        -0.10941
      90 ->101        -0.16519
      91 ->103         0.17039
      92 ->101         0.20927
      93 ->103        -0.10583

 Excited State  54:      Singlet-A      7.5892 eV  163.37 nm  f=0.0019  <S**2>=0.000
      80 -> 97        -0.10251
      82 -> 97         0.16958
      90 ->101         0.31392
      90 ->103        -0.17229
      91 ->101         0.16453
      92 ->100        -0.23580
      92 ->101        -0.27125
      92 ->103         0.15007
      93 ->101        -0.11583
      93 ->103         0.13021
      96 ->113        -0.15930

 Excited State  55:      Singlet-A      7.6022 eV  163.09 nm  f=0.0008  <S**2>=0.000
      80 -> 97         0.14311
      82 -> 97        -0.21203
      91 ->101         0.19925
      91 ->103         0.29970
      92 ->101         0.13460
      92 ->103         0.24979
      94 ->103        -0.13815
      96 ->113        -0.25156
      96 ->114        -0.15024

 Excited State  56:      Singlet-A      7.6445 eV  162.19 nm  f=0.0004  <S**2>=0.000
      78 -> 97        -0.11518
      80 -> 97         0.20862
      81 -> 97         0.16312
      82 -> 97         0.12459
      83 -> 97         0.40464
      84 -> 97        -0.18730
      91 -> 98        -0.11161
      93 ->100        -0.10648
      93 ->102        -0.14940
      93 ->104        -0.24911

 Excited State  57:      Singlet-A      7.6568 eV  161.93 nm  f=0.0053  <S**2>=0.000
      83 -> 97         0.20530
      90 -> 99         0.12397
      93 ->100         0.11586
      93 ->102         0.31894
      93 ->104         0.42736
      94 ->102        -0.11493
      94 ->104        -0.19574
      95 ->104         0.10491

 Excited State  58:      Singlet-A      7.6945 eV  161.13 nm  f=0.0008  <S**2>=0.000
      90 ->101         0.15967
      90 ->103        -0.18240
      91 ->101         0.20630
      91 ->103         0.17547
      92 ->101         0.15739
      94 ->103        -0.11680
      96 ->112        -0.17696
      96 ->113         0.36851
      96 ->114         0.15061
      96 ->115        -0.12126
      96 ->116        -0.12114
      96 ->117         0.13653

 Excited State  59:      Singlet-A      7.7516 eV  159.95 nm  f=0.0014  <S**2>=0.000
      80 -> 97        -0.18485
      81 -> 97         0.44389
      83 -> 97        -0.11895
      84 -> 97        -0.15201
      90 ->101         0.16380
      91 ->103        -0.12362
      92 ->101         0.17824
      96 ->114        -0.14512
      96 ->115        -0.13775

 Excited State  60:      Singlet-A      7.7579 eV  159.82 nm  f=0.0193  <S**2>=0.000
      81 -> 97         0.22361
      91 -> 98         0.14646
      91 -> 99         0.11457
      92 ->101        -0.10499
      96 ->112        -0.13027
      96 ->113         0.11424
      96 ->115         0.45803
      96 ->116         0.15286

 Excited State  61:      Singlet-A      7.7630 eV  159.71 nm  f=0.0038  <S**2>=0.000
      80 -> 97         0.10033
      81 -> 97        -0.20686
      89 ->101         0.10049
      90 ->101         0.29772
      91 ->103        -0.15197
      92 ->101         0.26361
      92 ->103        -0.16316
      95 ->103         0.10772
      96 ->114        -0.20479
      96 ->115         0.23583

 Excited State  62:      Singlet-A      7.7951 eV  159.05 nm  f=0.0037  <S**2>=0.000
      91 ->103        -0.10155
      92 ->101         0.24060
      92 ->103         0.12787
      95 ->103         0.11224
      96 ->113        -0.21436
      96 ->114         0.43783
      96 ->115         0.13323
      96 ->117         0.10486
      96 ->118        -0.17285

 Excited State  63:      Singlet-A      7.8098 eV  158.76 nm  f=0.1643  <S**2>=0.000
      82 -> 97         0.10517
      83 -> 97         0.26682
      90 -> 99        -0.21522
      91 -> 98         0.29648
      91 -> 99         0.22709
      92 ->102        -0.19578
      93 ->104         0.12317
      94 ->104         0.12823
      95 ->104        -0.12720
      96 ->115        -0.16163

 Excited State  64:      Singlet-A      7.8254 eV  158.44 nm  f=0.0683  <S**2>=0.000
      90 -> 98         0.39952
      90 -> 99        -0.25351
      91 -> 99        -0.31915
      92 ->100        -0.19159
      92 ->104         0.11814

 Excited State  65:      Singlet-A      7.8510 eV  157.92 nm  f=0.0027  <S**2>=0.000
      89 ->101        -0.14934
      90 ->103         0.12634
      91 ->101        -0.11916
      91 ->103        -0.18367
      92 ->103         0.46074
      95 ->101         0.13844
      95 ->103         0.10804
      96 ->112        -0.11374
      96 ->113         0.17732
      96 ->114        -0.19327

 Excited State  66:      Singlet-A      7.9247 eV  156.45 nm  f=0.0110  <S**2>=0.000
      73 -> 97        -0.22246
      76 -> 97         0.21484
      78 -> 97         0.39903
      80 -> 97         0.19217
      81 -> 97         0.19365
      82 -> 97        -0.18249

 Excited State  67:      Singlet-A      7.9572 eV  155.81 nm  f=0.3320  <S**2>=0.000
      90 -> 98         0.12741
      90 -> 99        -0.23967
      91 -> 98         0.24146
      92 ->102         0.50756
      95 ->104         0.13186

 Excited State  68:      Singlet-A      7.9781 eV  155.41 nm  f=0.0193  <S**2>=0.000
      77 -> 97         0.17313
      79 -> 97         0.48753
      80 -> 97        -0.15245
      85 -> 98        -0.10006
      88 -> 98        -0.16397
      88 -> 99        -0.17824

 Excited State  69:      Singlet-A      7.9847 eV  155.28 nm  f=0.0067  <S**2>=0.000
      79 -> 97         0.23841
      82 -> 97        -0.10417
      85 -> 99         0.12865
      88 -> 98         0.25792
      88 -> 99         0.25086
      94 ->105         0.11579
      95 ->105         0.19845
      96 ->115        -0.20487

 The electronic state is 1-A.
 Alpha  occ. eigenvalues --  -89.56811 -89.56686 -14.67786 -14.67377 -10.51751
 Alpha  occ. eigenvalues --  -10.51354 -10.46809 -10.46696 -10.45585 -10.45524
 Alpha  occ. eigenvalues --  -10.44577 -10.44327 -10.44038 -10.41991 -10.41934
 Alpha  occ. eigenvalues --  -10.41706 -10.41602 -10.41371 -10.41210 -10.41130
 Alpha  occ. eigenvalues --  -10.40976 -10.40965 -10.40878 -10.38841 -10.38637
 Alpha  occ. eigenvalues --   -8.22288  -8.22163  -6.11634  -6.11518  -6.11318
 Alpha  occ. eigenvalues --   -6.11203  -6.10998  -6.10863  -1.10792  -1.10633
 Alpha  occ. eigenvalues --   -0.95963  -0.95863  -0.93141  -0.92015  -0.89677
 Alpha  occ. eigenvalues --   -0.86425  -0.84862  -0.84567  -0.83006  -0.82042
 Alpha  occ. eigenvalues --   -0.81272  -0.77821  -0.72744  -0.72253  -0.72051
 Alpha  occ. eigenvalues --   -0.69689  -0.68313  -0.67318  -0.66068  -0.63186
 Alpha  occ. eigenvalues --   -0.62586  -0.58792  -0.58080  -0.57989  -0.55789
 Alpha  occ. eigenvalues --   -0.54919  -0.52918  -0.52698  -0.52624  -0.51605
 Alpha  occ. eigenvalues --   -0.51176  -0.50958  -0.50410  -0.49886  -0.48591
 Alpha  occ. eigenvalues --   -0.48150  -0.46663  -0.45910  -0.45146  -0.44968
 Alpha  occ. eigenvalues --   -0.44213  -0.43784  -0.42890  -0.42704  -0.41816
 Alpha  occ. eigenvalues --   -0.41618  -0.41221  -0.41034  -0.40505  -0.39924
 Alpha  occ. eigenvalues --   -0.39539  -0.39343  -0.39169  -0.36748  -0.35910
 Alpha  occ. eigenvalues --   -0.35780  -0.31911  -0.28704  -0.28615  -0.28473
 Alpha  occ. eigenvalues --   -0.22238
 Alpha virt. eigenvalues --   -0.08287  -0.01084  -0.01034  -0.00455   0.00643
 Alpha virt. eigenvalues --    0.00736   0.01337   0.02854   0.06100   0.06488
 Alpha virt. eigenvalues --    0.07165   0.07974   0.08472   0.08739   0.09252

 Mulliken charges:
               1
     1  C   -0.437435
     2  C    0.012253
     3  C   -0.462267
     4  C    0.242197
     5  C    0.246153
     6  S    0.059203
     7  C   -0.009724
     8  C    0.207433
     9  N    0.100731
    10  S    0.018916
    11  C    0.007604
    12  C    0.197554
    13  N    0.095323
    14  C   -0.204462
    15  C   -0.177073
    16  C   -0.125026
    17  C   -0.331321
    18  C   -0.199452
    19  C   -0.171849
    20  C   -0.130540
    21  C   -0.331404
    22  C   -0.171305
    23  C   -0.435128
    24  C   -0.212080
    25  C   -0.431603
    26  H    0.183845
    27  H    0.184403
    28  H    0.180503
    29  H    0.181716
    30  H    0.173679
    31  H    0.174216
    32  H    0.183306
    33  H    0.181531
    34  H    0.174137
    35  H    0.174683
    36  H    0.187272
    37  H    0.171667
    38  H    0.173608
    39  H    0.158794
    40  H    0.156688
    41  H    0.157396
    42  H    0.183504
    43  H    0.179803
    44  H    0.159476
    45  H    0.158077
    46  H    0.165000
 Sum of Mulliken charges =   1.00000

 Dipole moment (field-independent basis, Debye):
    X=              1.1864    Y=              0.2502    Z=              1.2555  Tot=              1.7455
 Quadrupole moment (field-independent basis, Debye-Ang):
   XX=            -49.8883   YY=           -122.9692   ZZ=           -165.5288
   XY=             15.6998   XZ=              1.6978   YZ=              0.9485

 Normal termination of Gaussian 16 at Sun Nov  5 15:17:45 2023.
