 Gaussian 16, Revision C.02,
 Gaussian 16:  ES64L-G16RevC.02  7-Dec-2021

 ----------------------------------------------------------------------
 # td=(nstates=50) PBEPBE/def2TZVP IOp(3/76=1000003750) IOp(3/77=062500
 6250) IOp(3/78=1000010000) scrf(smd, solvent=ethanol)
 ----------------------------------------------------------------------

 ---
 B-2
 ---
 Symbolic Z-matrix:
 Charge =  0 Multiplicity = 1

                         Standard orientation:
 ---------------------------------------------------------------------
 Center     Atomic      Atomic             Coordinates (Angstroms)
 Number     Number       Type             X           Y           Z
 ---------------------------------------------------------------------
      1          6           0        4.186043   -0.985243   -0.000113
      2          6           0        2.965678   -0.099955    0.000017
      3          6           0        1.724259   -0.636470   -0.000213
      4          6           0        0.452578    0.059668   -0.000179
      5          6           0       -0.741079   -0.579413   -0.000205
      6          6           0       -2.064372    0.040415   -0.000137
      7          6           0       -3.152878   -0.763225    0.000253
      8          6           0       -4.604173   -0.385851    0.000427
      9          6           0        3.260391    1.378273    0.000567
     10          6           0       -2.133175    1.550261   -0.000541
     11          1           0        4.817179   -0.791217   -0.879673
     12          1           0        4.817098   -0.791647    0.879598
     13          1           0        3.922096   -2.047445   -0.000374
     14          1           0        1.652379   -1.725280   -0.000493
     15          1           0        0.469127    1.146468   -0.000113
     16          1           0       -0.735417   -1.670538   -0.000304
     17          1           0       -2.968126   -1.838635    0.000440
     18          1           0       -4.773466    0.693748    0.001475
     19          1           0       -5.114894   -0.802710   -0.879231
     20          1           0       -5.115042   -0.804470    0.879137
     21          1           0        2.363003    2.000757    0.000075
     22          1           0        3.859006    1.653716    0.880554
     23          1           0        3.860320    1.654180   -0.878355
     24          1           0       -1.627265    1.964044   -0.882102
     25          1           0       -3.158688    1.923675   -0.000452
     26          1           0       -1.626926    1.964596    0.880567
 ---------------------------------------------------------------------

 SCF Done:  E(RPBE+HF-PBE) =  -390.358997250     A.U. after   11 cycles

 Excitation energies and oscillator strengths:

 Excited State   1:      Singlet-A      4.4000 eV  281.78 nm  f=1.4876  <S**2>=0.000
      38 -> 39         0.70596
 This state for optimization and/or second-order correction.
 Total Energy, E(TD-HF/TD-DFT) =  -390.197300773
 Copying the excited state density for this state as the 1-particle RhoCI density.

 Excited State   2:      Singlet-A      6.0180 eV  206.02 nm  f=0.0087  <S**2>=0.000
      37 -> 39         0.62299
      38 -> 40         0.32027

 Excited State   3:      Singlet-A      6.4928 eV  190.96 nm  f=0.0087  <S**2>=0.000
      38 -> 41         0.69057

 Excited State   4:      Singlet-A      6.5170 eV  190.25 nm  f=0.0165  <S**2>=0.000
      37 -> 39        -0.32032
      38 -> 40         0.62260

 Excited State   5:      Singlet-A      6.7587 eV  183.44 nm  f=0.0001  <S**2>=0.000
      37 -> 41         0.12448
      38 -> 42         0.68081

 Excited State   6:      Singlet-A      6.8489 eV  181.03 nm  f=0.0002  <S**2>=0.000
      35 -> 39        -0.12237
      38 -> 43         0.65125
      38 -> 45        -0.20734

 Excited State   7:      Singlet-A      6.9721 eV  177.83 nm  f=0.0146  <S**2>=0.000
      36 -> 39        -0.22141
      38 -> 44         0.66629

 Excited State   8:      Singlet-A      6.9994 eV  177.14 nm  f=0.0000  <S**2>=0.000
      35 -> 39         0.67525
      38 -> 43         0.12520

 Excited State   9:      Singlet-A      7.4468 eV  166.49 nm  f=0.0000  <S**2>=0.000
      34 -> 39         0.64636
      35 -> 40         0.14729
      38 -> 45         0.15892

 Excited State  10:      Singlet-A      7.5249 eV  164.77 nm  f=0.0001  <S**2>=0.000
      34 -> 39        -0.17421
      38 -> 43         0.19058
      38 -> 45         0.62307
      38 -> 47         0.11005

 Excited State  11:      Singlet-A      7.6899 eV  161.23 nm  f=0.0216  <S**2>=0.000
      36 -> 39         0.65949
      37 -> 40        -0.10004
      38 -> 44         0.20762

 Excited State  12:      Singlet-A      7.7697 eV  159.57 nm  f=0.0000  <S**2>=0.000
      37 -> 43         0.12124
      38 -> 45        -0.10125
      38 -> 46         0.54657
      38 -> 47         0.36243
      38 -> 49        -0.12880

 Excited State  13:      Singlet-A      7.7904 eV  159.15 nm  f=0.0003  <S**2>=0.000
      30 -> 39        -0.15262
      32 -> 39         0.26782
      33 -> 39         0.59210

 Excited State  14:      Singlet-A      7.9462 eV  156.03 nm  f=0.0002  <S**2>=0.000
      38 -> 46        -0.32158
      38 -> 47         0.52173
      38 -> 48         0.17163
      38 -> 49         0.20587

 Excited State  15:      Singlet-A      8.0900 eV  153.26 nm  f=0.0001  <S**2>=0.000
      30 -> 39        -0.27803
      32 -> 39         0.48278
      33 -> 39        -0.28843
      34 -> 40        -0.15355
      38 -> 47         0.12390
      38 -> 48        -0.11838

 Excited State  16:      Singlet-A      8.1375 eV  152.36 nm  f=0.0002  <S**2>=0.000
      32 -> 39         0.11858
      38 -> 46         0.15365
      38 -> 47        -0.15102
      38 -> 48         0.58252
      38 -> 49         0.22903

 Excited State  17:      Singlet-A      8.2844 eV  149.66 nm  f=0.0003  <S**2>=0.000
      37 -> 47         0.11000
      38 -> 46         0.18257
      38 -> 48        -0.27955
      38 -> 49         0.59035

 Excited State  18:      Singlet-A      8.4200 eV  147.25 nm  f=0.3065  <S**2>=0.000
      37 -> 40         0.68607

 Excited State  19:      Singlet-A      8.4543 eV  146.65 nm  f=0.0034  <S**2>=0.000
      28 -> 39         0.12336
      31 -> 39         0.61283
      32 -> 39        -0.13954
      33 -> 40        -0.18019
      37 -> 41        -0.10737

 Excited State  20:      Singlet-A      8.5215 eV  145.50 nm  f=0.0027  <S**2>=0.000
      31 -> 39         0.10818
      37 -> 41         0.60303
      37 -> 42         0.24651
      38 -> 42        -0.11197

 Excited State  21:      Singlet-A      8.6587 eV  143.19 nm  f=0.0342  <S**2>=0.000
      37 -> 50         0.10568
      38 -> 50         0.67410
      38 -> 52        -0.14447

 Excited State  22:      Singlet-A      8.6890 eV  142.69 nm  f=0.0014  <S**2>=0.000
      30 -> 39         0.59373
      32 -> 39         0.31400

 Excited State  23:      Singlet-A      8.7716 eV  141.35 nm  f=0.0179  <S**2>=0.000
      37 -> 51        -0.11133
      38 -> 51         0.68966

 Excited State  24:      Singlet-A      8.8589 eV  139.95 nm  f=0.0002  <S**2>=0.000
      36 -> 41         0.12227
      37 -> 41        -0.26355
      37 -> 42         0.54939
      38 -> 53        -0.22999

 Excited State  25:      Singlet-A      8.9340 eV  138.78 nm  f=0.0049  <S**2>=0.000
      36 -> 40        -0.10003
      37 -> 44         0.46894
      38 -> 50         0.10439
      38 -> 52         0.48791

 Excited State  26:      Singlet-A      8.9710 eV  138.21 nm  f=0.0000  <S**2>=0.000
      37 -> 43         0.60872
      37 -> 45        -0.14469
      38 -> 53         0.20571

 Excited State  27:      Singlet-A      9.0202 eV  137.45 nm  f=0.0041  <S**2>=0.000
      37 -> 42         0.27485
      37 -> 43        -0.16534
      37 -> 45         0.10122
      37 -> 49         0.10383
      38 -> 53         0.55198
      38 -> 54         0.14633
      38 -> 57         0.11178

 Excited State  28:      Singlet-A      9.0777 eV  136.58 nm  f=0.0089  <S**2>=0.000
      28 -> 39         0.61705
      31 -> 39        -0.18027
      34 -> 39        -0.10576
      35 -> 40         0.16157

 Excited State  29:      Singlet-A      9.1317 eV  135.77 nm  f=0.0198  <S**2>=0.000
      36 -> 40        -0.12859
      37 -> 44         0.48075
      38 -> 52        -0.47219

 Excited State  30:      Singlet-A      9.1335 eV  135.75 nm  f=0.0006  <S**2>=0.000
      37 -> 48         0.10337
      38 -> 53        -0.16058
      38 -> 54         0.62463
      38 -> 55         0.17466

 Excited State  31:      Singlet-A      9.2750 eV  133.68 nm  f=0.0555  <S**2>=0.000
      29 -> 39         0.68790
      29 -> 40         0.14166

 Excited State  32:      Singlet-A      9.3781 eV  132.21 nm  f=0.0045  <S**2>=0.000
      37 -> 45        -0.11341
      37 -> 49         0.12409
      38 -> 54        -0.19120
      38 -> 55         0.60738

 Excited State  33:      Singlet-A      9.4498 eV  131.20 nm  f=0.0007  <S**2>=0.000
      26 -> 39         0.29160
      28 -> 39        -0.20312
      34 -> 44         0.17518
      35 -> 40         0.48837
      38 -> 57        -0.17586

 Excited State  34:      Singlet-A      9.5369 eV  130.00 nm  f=0.0042  <S**2>=0.000
      26 -> 39         0.10702
      35 -> 40         0.17115
      37 -> 45         0.25792
      37 -> 54         0.11667
      38 -> 53        -0.10319
      38 -> 55         0.14353
      38 -> 57         0.54526

 Excited State  35:      Singlet-A      9.5872 eV  129.32 nm  f=0.0004  <S**2>=0.000
      26 -> 39         0.43403
      30 -> 40         0.11516
      32 -> 40        -0.12358
      34 -> 40         0.10061
      35 -> 40        -0.28108
      37 -> 45         0.29157
      38 -> 57        -0.17598

 Excited State  36:      Singlet-A      9.6157 eV  128.94 nm  f=0.0004  <S**2>=0.000
      26 -> 39        -0.24618
      34 -> 40        -0.11221
      35 -> 40         0.15453
      37 -> 43         0.13177
      37 -> 45         0.48788
      38 -> 57        -0.25459

 Excited State  37:      Singlet-A      9.7265 eV  127.47 nm  f=0.0053  <S**2>=0.000
      23 -> 39        -0.10305
      26 -> 39        -0.18824
      34 -> 40         0.32180
      35 -> 44         0.25498
      36 -> 43        -0.13360
      37 -> 46        -0.25982
      37 -> 47        -0.23024
      38 -> 58        -0.14361
      38 -> 59         0.14543

 Excited State  38:      Singlet-A      9.7354 eV  127.35 nm  f=0.0511  <S**2>=0.000
      27 -> 39        -0.10793
      37 -> 56        -0.12658
      38 -> 56         0.67423

 Excited State  39:      Singlet-A      9.7668 eV  126.94 nm  f=0.0018  <S**2>=0.000
      34 -> 40         0.32917
      35 -> 44         0.26527
      37 -> 46         0.25019
      37 -> 47         0.22835
      37 -> 48        -0.11629
      38 -> 58         0.27782
      38 -> 59        -0.15499

 Excited State  40:      Singlet-A      9.7829 eV  126.74 nm  f=0.0368  <S**2>=0.000
      25 -> 39        -0.13266
      27 -> 39         0.63082
      27 -> 40        -0.10008
      36 -> 40        -0.21537
      38 -> 56         0.10685

 Excited State  41:      Singlet-A      9.8320 eV  126.10 nm  f=0.0068  <S**2>=0.000
      27 -> 39         0.21590
      36 -> 40         0.61679
      37 -> 44         0.16643
      38 -> 60         0.11361

 Excited State  42:      Singlet-A      9.8904 eV  125.36 nm  f=0.0044  <S**2>=0.000
      36 -> 41         0.17629
      36 -> 43        -0.12982
      37 -> 46        -0.35908
      37 -> 49         0.11422
      38 -> 55        -0.13880
      38 -> 58         0.37952
      38 -> 59        -0.27502

 Excited State  43:      Singlet-A      9.9555 eV  124.54 nm  f=0.0006  <S**2>=0.000
      36 -> 41         0.19530
      37 -> 47         0.48865
      37 -> 48         0.13975
      37 -> 49         0.22144
      38 -> 58        -0.23524

 Excited State  44:      Singlet-A     10.0146 eV  123.80 nm  f=0.0560  <S**2>=0.000
      34 -> 41         0.12475
      34 -> 42        -0.25464
      35 -> 41         0.60889

 Excited State  45:      Singlet-A     10.0167 eV  123.78 nm  f=0.0181  <S**2>=0.000
      36 -> 41         0.11831
      37 -> 48         0.10604
      38 -> 58         0.37533
      38 -> 59         0.50030
      38 -> 61        -0.13982

 Excited State  46:      Singlet-A     10.1508 eV  122.14 nm  f=0.0025  <S**2>=0.000
      34 -> 41        -0.43468
      34 -> 42        -0.14673
      34 -> 43        -0.10118
      35 -> 41         0.11249
      35 -> 42         0.46969

 Excited State  47:      Singlet-A     10.1870 eV  121.71 nm  f=0.0001  <S**2>=0.000
      36 -> 41         0.48643
      37 -> 46         0.25963
      37 -> 47        -0.16754
      37 -> 49        -0.16591
      38 -> 59        -0.13458
      38 -> 62         0.19543

 Excited State  48:      Singlet-A     10.2205 eV  121.31 nm  f=0.0023  <S**2>=0.000
      25 -> 39         0.22623
      36 -> 40        -0.13677
      37 -> 60         0.10540
      38 -> 60         0.58027
      38 -> 62         0.13447
      38 -> 63         0.14770

 Excited State  49:      Singlet-A     10.2223 eV  121.29 nm  f=0.0003  <S**2>=0.000
      36 -> 41        -0.11729
      37 -> 46        -0.13483
      37 -> 48        -0.16252
      38 -> 60        -0.13362
      38 -> 62         0.58394

 Excited State  50:      Singlet-A     10.3035 eV  120.33 nm  f=0.0002  <S**2>=0.000
      36 -> 43        -0.16219
      36 -> 45         0.13753
      36 -> 47         0.10007
      37 -> 46         0.30410
      37 -> 47        -0.15572
      37 -> 49         0.49218
      38 -> 53        -0.10162

 The electronic state is 1-A.
 Alpha  occ. eigenvalues --  -10.40573 -10.40143 -10.39219 -10.39110 -10.39016
 Alpha  occ. eigenvalues --  -10.38398 -10.37939 -10.37837 -10.37773 -10.37709
 Alpha  occ. eigenvalues --   -0.90185  -0.88094  -0.82943  -0.78443  -0.75040
 Alpha  occ. eigenvalues --   -0.74270  -0.71089  -0.62415  -0.57682  -0.55744
 Alpha  occ. eigenvalues --   -0.52157  -0.50073  -0.48003  -0.46863  -0.45851
 Alpha  occ. eigenvalues --   -0.45277  -0.43627  -0.41820  -0.41637  -0.40985
 Alpha  occ. eigenvalues --   -0.40591  -0.39787  -0.39011  -0.37241  -0.35942
 Alpha  occ. eigenvalues --   -0.35855  -0.29603  -0.22288
 Alpha virt. eigenvalues --   -0.02005   0.06488   0.06940   0.07756   0.09025
 Alpha virt. eigenvalues --    0.09955   0.10806   0.11738   0.12377   0.13323
 Alpha virt. eigenvalues --    0.13874   0.14718   0.14875   0.16199   0.16740

 Mulliken charges:
               1
     1  C   -0.411640
     2  C    0.058091
     3  C   -0.306015
     4  C   -0.104999
     5  C   -0.230079
     6  C   -0.029959
     7  C   -0.158246
     8  C   -0.398155
     9  C   -0.406732
    10  C   -0.422741
    11  H    0.148079
    12  H    0.148067
    13  H    0.149010
    14  H    0.145835
    15  H    0.164685
    16  H    0.148525
    17  H    0.151635
    18  H    0.143192
    19  H    0.152661
    20  H    0.152649
    21  H    0.146021
    22  H    0.150699
    23  H    0.150683
    24  H    0.153703
    25  H    0.151330
    26  H    0.153700
 Sum of Mulliken charges =  -0.00000

 Dipole moment (field-independent basis, Debye):
    X=              0.1641    Y=              0.5881    Z=              0.0002  Tot=              0.6105
 Quadrupole moment (field-independent basis, Debye-Ang):
   XX=            -51.1295   YY=            -58.4779   ZZ=            -67.4315
   XY=              1.1150   XZ=              0.0012   YZ=              0.0003

 Normal termination of Gaussian 16 at Sat Nov  4 18:48:14 2023.
