 Gaussian 16, Revision C.02,
 Gaussian 16:  ES64L-G16RevC.02  7-Dec-2021

 ----------------------------------------------------------------------
 # td=(nstates=150) PBEPBE/def2TZVP IOp(3/76=1000003750) IOp(3/77=06250
 06250) IOp(3/78=1000010000) scrf(smd, solvent=ethanol)
 ----------------------------------------------------------------------

 ---
 B-1
 ---
 Symbolic Z-matrix:
 Charge =  0 Multiplicity = 1

                         Standard orientation:
 ---------------------------------------------------------------------
 Center     Atomic      Atomic             Coordinates (Angstroms)
 Number     Number       Type             X           Y           Z
 ---------------------------------------------------------------------
      1          6           0       13.193247    1.965180    0.357514
      2          6           0       14.150234    1.366297   -0.666837
      3          6           0       14.197930   -0.145886   -0.469985
      4          6           0       12.839886   -0.781119   -0.265942
      5          6           0       11.699193   -0.069117   -0.020535
      6          6           0       11.734254    1.463294    0.197940
      7          6           0       10.434640   -0.808638    0.027915
      8          6           0        9.147698   -0.368486    0.051934
      9          6           0        7.970978   -1.218813    0.064023
     10          6           0        6.738479   -0.618773    0.069992
     11          6           0        5.445845   -1.238015    0.078209
     12          6           0        4.280328   -0.525977    0.081210
     13          6           0        2.942601   -1.063627    0.086009
     14          6           0        1.885522   -0.185039    0.086900
     15          6           0        0.488362   -0.479870    0.088382
     16          6           0       -0.488364    0.479879    0.088381
     17          6           0       -1.885523    0.185049    0.086901
     18          6           0       -2.942603    1.063636    0.086010
     19          6           0       -4.280330    0.525984    0.081210
     20          6           0       -5.445847    1.238022    0.078205
     21          6           0       -6.738480    0.618778    0.069986
     22          6           0       -7.970980    1.218816    0.064016
     23          6           0       -9.147699    0.368486    0.051926
     24          6           0      -10.434641    0.808636    0.027911
     25          6           0      -11.699193    0.069112   -0.020539
     26          6           0      -11.734248   -1.463299    0.197935
     27          6           0       11.014600    1.853868    1.513234
     28          6           0       11.087577    2.209256   -0.996377
     29          6           0       12.878927   -2.293643   -0.398885
     30          6           0      -13.193238   -1.965187    0.357525
     31          6           0      -14.150237   -1.366308   -0.666817
     32          6           0      -14.197934    0.145875   -0.469969
     33          6           0      -12.839889    0.781111   -0.265939
     34          6           0      -11.014576   -1.853870    1.513220
     35          6           0      -11.087582   -2.209257   -0.996389
     36          6           0      -12.878932    2.293635   -0.398883
     37          6           0       -8.156563    2.717180    0.068498
     38          6           0       -2.769507    2.564242    0.088788
     39          6           0        2.769504   -2.564233    0.088790
     40          6           0        8.156557   -2.717177    0.068503
     41          1           0       13.552240    1.704444    1.363722
     42          1           0       13.191791    3.061587    0.302962
     43          1           0       15.153148    1.798268   -0.563053
     44          1           0       13.813091    1.597755   -1.685187
     45          1           0       14.836732   -0.392637    0.395545
     46          1           0       14.685170   -0.631298   -1.328645
     47          1           0       10.553209   -1.886254   -0.000126
     48          1           0        8.931571    0.694424    0.048253
     49          1           0        6.727188    0.472294    0.066595
     50          1           0        5.394190   -2.323329    0.080545
     51          1           0        4.354073    0.562407    0.078511
     52          1           0        2.136434    0.876729    0.085263
     53          1           0        0.172471   -1.521700    0.088524
     54          1           0       -0.172472    1.521709    0.088521
     55          1           0       -2.136435   -0.876720    0.085267
     56          1           0       -4.354074   -0.562400    0.078514
     57          1           0       -5.394193    2.323335    0.080538
     58          1           0       -6.727188   -0.472289    0.066588
     59          1           0       -8.931568   -0.694423    0.048240
     60          1           0      -10.553213    1.886252   -0.000123
     61          1           0       11.416560    1.280584    2.356412
     62          1           0       11.183965    2.918133    1.720013
     63          1           0        9.936160    1.690871    1.488587
     64          1           0       10.062275    1.884980   -1.187807
     65          1           0       11.067226    3.288779   -0.800274
     66          1           0       11.653135    2.045583   -1.919919
     67          1           0       13.913764   -2.648960   -0.350635
     68          1           0       12.324510   -2.809583    0.392139
     69          1           0       12.468777   -2.633235   -1.360075
     70          1           0      -13.191780   -3.061594    0.302976
     71          1           0      -13.552222   -1.704450    1.363737
     72          1           0      -15.153149   -1.798281   -0.563022
     73          1           0      -13.813104   -1.597768   -1.685170
     74          1           0      -14.836727    0.392627    0.395567
     75          1           0      -14.685183    0.631285   -1.328625
     76          1           0      -11.183932   -2.918136    1.719999
     77          1           0       -9.936137   -1.690867    1.488558
     78          1           0      -11.416527   -1.280589    2.356403
     79          1           0      -10.062283   -1.884978   -1.187830
     80          1           0      -11.067226   -3.288781   -0.800288
     81          1           0      -11.653150   -2.045585   -1.919926
     82          1           0      -13.913771    2.648951   -0.350639
     83          1           0      -12.324521    2.809577    0.392144
     84          1           0      -12.468777    2.633229   -1.360071
     85          1           0       -8.744087    3.036457    0.938730
     86          1           0       -7.209146    3.257946    0.093047
     87          1           0       -8.704221    3.047232   -0.823677
     88          1           0       -3.248036    3.011075    0.969534
     89          1           0       -1.721470    2.868026    0.092705
     90          1           0       -3.242385    3.013831   -0.793611
     91          1           0        3.242396   -3.013825   -0.793600
     92          1           0        3.248019   -3.011063    0.969546
     93          1           0        1.721466   -2.868016    0.092692
     94          1           0        7.209140   -3.257941    0.093061
     95          1           0        8.704208   -3.047230   -0.823677
     96          1           0        8.744089   -3.036455    0.938730
 ---------------------------------------------------------------------

 SCF Done:  E(RPBE+HF-PBE) =  -1556.68131702     A.U. after   12 cycles

 Excitation energies and oscillator strengths:

 Excited State   1:      Singlet-A      2.1470 eV  577.47 nm  f=4.6002  <S**2>=0.000
     147 -> 150       -0.12216
     148 -> 149        0.69570
 This state for optimization and/or second-order correction.
 Total Energy, E(TD-HF/TD-DFT) =  -1556.60241523
 Copying the excited state density for this state as the 1-particle RhoCI density.

 Excited State   2:      Singlet-A      2.9801 eV  416.04 nm  f=0.0008  <S**2>=0.000
     146 -> 150       -0.12453
     147 -> 149        0.68264
     148 -> 150        0.11212

 Excited State   3:      Singlet-A      3.2724 eV  378.88 nm  f=0.0020  <S**2>=0.000
     147 -> 149       -0.12579
     147 -> 151        0.12208
     148 -> 150        0.68432

 Excited State   4:      Singlet-A      3.6753 eV  337.34 nm  f=0.0329  <S**2>=0.000
     145 -> 150       -0.11216
     146 -> 149        0.66612
     148 -> 151        0.17952

 Excited State   5:      Singlet-A      4.0606 eV  305.34 nm  f=0.5887  <S**2>=0.000
     147 -> 150        0.61049
     148 -> 149        0.11318
     148 -> 151        0.31611

 Excited State   6:      Singlet-A      4.1796 eV  296.64 nm  f=0.0466  <S**2>=0.000
     146 -> 149       -0.18632
     147 -> 150       -0.31075
     148 -> 151        0.58757

 Excited State   7:      Singlet-A      4.3475 eV  285.18 nm  f=0.0005  <S**2>=0.000
     144 -> 150       -0.12187
     145 -> 149        0.65824
     146 -> 150       -0.11580
     148 -> 152        0.15801

 Excited State   8:      Singlet-A      4.7389 eV  261.63 nm  f=0.0023  <S**2>=0.000
     145 -> 149        0.10333
     145 -> 151        0.11268
     146 -> 150        0.65905
     147 -> 149        0.13274
     147 -> 151        0.13859

 Excited State   9:      Singlet-A      4.8430 eV  256.00 nm  f=0.0138  <S**2>=0.000
     144 -> 149        0.65386
     145 -> 150       -0.16011
     148 -> 153       -0.13313

 Excited State  10:      Singlet-A      4.8717 eV  254.50 nm  f=0.0033  <S**2>=0.000
     145 -> 149       -0.12517
     147 -> 151        0.57732
     148 -> 150       -0.11398
     148 -> 152        0.32409

 Excited State  11:      Singlet-A      5.0519 eV  245.42 nm  f=0.0003  <S**2>=0.000
     145 -> 149       -0.13000
     147 -> 151       -0.33324
     147 -> 153       -0.10471
     148 -> 152        0.57523

 Excited State  12:      Singlet-A      5.3988 eV  229.65 nm  f=0.0198  <S**2>=0.000
     144 -> 149        0.16784
     144 -> 151        0.11928
     145 -> 150        0.60010
     146 -> 149        0.12198
     146 -> 151        0.25860

 Excited State  13:      Singlet-A      5.4453 eV  227.69 nm  f=0.0000  <S**2>=0.000
     143 -> 149        0.62621
     144 -> 150       -0.17218
     148 -> 152        0.10676
     148 -> 158        0.13361

 Excited State  14:      Singlet-A      5.5349 eV  224.00 nm  f=0.0927  <S**2>=0.000
     144 -> 149        0.12900
     146 -> 151       -0.31291
     147 -> 152       -0.37917
     148 -> 153        0.44000

 Excited State  15:      Singlet-A      5.6535 eV  219.31 nm  f=0.0057  <S**2>=0.000
     141 -> 150        0.28584
     142 -> 149        0.58801
     142 -> 151       -0.15621
     146 -> 151        0.10082

 Excited State  16:      Singlet-A      5.6570 eV  219.17 nm  f=0.0000  <S**2>=0.000
     141 -> 149        0.59464
     141 -> 151       -0.15314
     142 -> 150        0.29544

 Excited State  17:      Singlet-A      5.7229 eV  216.65 nm  f=0.0932  <S**2>=0.000
     145 -> 150       -0.25899
     146 -> 151        0.50286
     148 -> 153        0.37673

 Excited State  18:      Singlet-A      5.8003 eV  213.76 nm  f=0.0008  <S**2>=0.000
     146 -> 155        0.10945
     147 -> 154        0.28739
     148 -> 155        0.57456
     148 -> 156       -0.21912

 Excited State  19:      Singlet-A      5.8042 eV  213.61 nm  f=0.0133  <S**2>=0.000
     146 -> 154        0.11692
     147 -> 155        0.29669
     148 -> 154        0.57612
     148 -> 157        0.18185

 Excited State  20:      Singlet-A      5.8736 eV  211.09 nm  f=0.0051  <S**2>=0.000
     146 -> 151       -0.20851
     146 -> 153       -0.10909
     147 -> 152        0.55376
     148 -> 151       -0.12246
     148 -> 153        0.31476

 Excited State  21:      Singlet-A      5.9187 eV  209.48 nm  f=0.0021  <S**2>=0.000
     143 -> 149        0.19004
     143 -> 151        0.10097
     144 -> 150        0.59092
     145 -> 149        0.13062
     145 -> 151        0.24494

 Excited State  22:      Singlet-A      6.0089 eV  206.33 nm  f=0.0005  <S**2>=0.000
     140 -> 149        0.17924
     147 -> 154        0.11491
     147 -> 157       -0.11091
     148 -> 155        0.12959
     148 -> 156        0.49858
     148 -> 159       -0.28633
     148 -> 161        0.17255

 Excited State  23:      Singlet-A      6.0281 eV  205.68 nm  f=0.0034  <S**2>=0.000
     137 -> 150       -0.10156
     138 -> 149        0.19268
     139 -> 150       -0.10290
     140 -> 149        0.52723
     143 -> 150       -0.15535
     148 -> 156       -0.15587
     148 -> 159        0.13727
     148 -> 163        0.14282

 Excited State  24:      Singlet-A      6.0428 eV  205.18 nm  f=0.0072  <S**2>=0.000
     137 -> 149        0.17526
     139 -> 149        0.18302
     140 -> 150       -0.10902
     143 -> 149        0.15957
     145 -> 151       -0.10802
     146 -> 152       -0.15864
     147 -> 153        0.25504
     148 -> 157        0.40052
     148 -> 158       -0.24978
     148 -> 162        0.10153

 Excited State  25:      Singlet-A      6.1008 eV  203.23 nm  f=0.0017  <S**2>=0.000
     137 -> 149       -0.14569
     139 -> 149       -0.17873
     147 -> 155       -0.10414
     147 -> 156       -0.18339
     148 -> 154       -0.12448
     148 -> 157        0.37521
     148 -> 158        0.35054
     148 -> 162        0.23667

 Excited State  26:      Singlet-A      6.1654 eV  201.10 nm  f=0.0003  <S**2>=0.000
     137 -> 149        0.18710
     139 -> 149        0.47024
     140 -> 150       -0.19116
     147 -> 153       -0.14900
     148 -> 158        0.30526

 Excited State  27:      Singlet-A      6.2001 eV  199.97 nm  f=0.0013  <S**2>=0.000
     130 -> 149       -0.13524
     134 -> 149       -0.11865
     138 -> 149        0.44424
     139 -> 150        0.21386
     140 -> 149       -0.25239
     148 -> 163        0.28749

 Excited State  28:      Singlet-A      6.2504 eV  198.36 nm  f=0.0000  <S**2>=0.000
     135 -> 149        0.13524
     137 -> 149        0.46500
     138 -> 150       -0.21759
     139 -> 149       -0.27141
     148 -> 160        0.22048
     148 -> 170       -0.10029

 Excited State  29:      Singlet-A      6.2524 eV  198.30 nm  f=0.0018  <S**2>=0.000
     130 -> 149       -0.13443
     133 -> 149       -0.10189
     138 -> 149        0.23803
     147 -> 157        0.11045
     147 -> 160        0.10772
     148 -> 156       -0.15816
     148 -> 161        0.35331
     148 -> 163       -0.28568
     148 -> 164       -0.12208
     148 -> 166       -0.22819
     148 -> 167        0.11218

 Excited State  30:      Singlet-A      6.2655 eV  197.88 nm  f=0.0002  <S**2>=0.000
     137 -> 149       -0.20004
     147 -> 161        0.21606
     148 -> 160        0.52721
     148 -> 168        0.22140

 Excited State  31:      Singlet-A      6.2719 eV  197.68 nm  f=0.0063  <S**2>=0.000
     138 -> 149       -0.22202
     147 -> 160        0.14060
     148 -> 156       -0.10617
     148 -> 161        0.34603
     148 -> 163        0.38335
     148 -> 164       -0.13684
     148 -> 166       -0.13791
     148 -> 167       -0.16390

 Excited State  32:      Singlet-A      6.2976 eV  196.87 nm  f=0.0012  <S**2>=0.000
     130 -> 149        0.12833
     146 -> 156        0.10759
     147 -> 157       -0.16845
     147 -> 158       -0.11500
     147 -> 160        0.15735
     148 -> 156        0.19446
     148 -> 159        0.47033
     148 -> 161        0.16440
     148 -> 163       -0.12662
     148 -> 169        0.18335

 Excited State  33:      Singlet-A      6.3155 eV  196.32 nm  f=0.0001  <S**2>=0.000
     128 -> 149        0.12296
     130 -> 149        0.43960
     133 -> 149        0.37659
     138 -> 149        0.15283
     148 -> 159       -0.15688

 Excited State  34:      Singlet-A      6.3223 eV  196.11 nm  f=0.0015  <S**2>=0.000
     144 -> 150       -0.26897
     144 -> 152        0.10175
     145 -> 151        0.54464
     146 -> 150       -0.11019
     146 -> 152        0.16967
     147 -> 153       -0.10269
     148 -> 157        0.10185
     148 -> 158       -0.18939

 Excited State  35:      Singlet-A      6.4051 eV  193.57 nm  f=0.0042  <S**2>=0.000
     134 -> 149       -0.16826
     138 -> 149       -0.10113
     147 -> 165       -0.14231
     147 -> 170       -0.14633
     148 -> 164       -0.33005
     148 -> 167        0.47706

 Excited State  36:      Singlet-A      6.4181 eV  193.18 nm  f=0.0001  <S**2>=0.000
     122 -> 149        0.11945
     127 -> 149       -0.11103
     129 -> 149        0.48230
     132 -> 149       -0.35617
     133 -> 150        0.17739

 Excited State  37:      Singlet-A      6.4338 eV  192.71 nm  f=0.0000  <S**2>=0.000
     146 -> 152       -0.11805
     147 -> 153        0.12232
     147 -> 156        0.14209
     147 -> 159        0.13820
     147 -> 161       -0.16515
     148 -> 154        0.13039
     148 -> 157       -0.21135
     148 -> 162        0.51124

 Excited State  38:      Singlet-A      6.4525 eV  192.15 nm  f=0.0009  <S**2>=0.000
     145 -> 151       -0.25144
     146 -> 152        0.37141
     147 -> 153       -0.33987
     148 -> 158       -0.23090
     148 -> 162        0.17063
     148 -> 165        0.11878

 Excited State  39:      Singlet-A      6.5050 eV  190.60 nm  f=0.0000  <S**2>=0.000
     131 -> 149        0.23099
     146 -> 152       -0.10186
     147 -> 164        0.15969
     147 -> 166       -0.10459
     147 -> 167       -0.12214
     148 -> 158        0.14927
     148 -> 165        0.34088
     148 -> 170        0.41236

 Excited State  40:      Singlet-A      6.5079 eV  190.51 nm  f=0.0003  <S**2>=0.000
     143 -> 150       -0.13059
     147 -> 162       -0.23006
     148 -> 156       -0.10234
     148 -> 159       -0.18646
     148 -> 161        0.18636
     148 -> 164        0.25768
     148 -> 166        0.41724
     148 -> 174        0.10217

 Excited State  41:      Singlet-A      6.5420 eV  189.52 nm  f=0.0029  <S**2>=0.000
     140 -> 149        0.15439
     142 -> 149        0.11241
     143 -> 150        0.49051
     144 -> 151        0.28156
     145 -> 152        0.13191
     148 -> 166        0.16650

 Excited State  42:      Singlet-A      6.5567 eV  189.10 nm  f=0.0010  <S**2>=0.000
     121 -> 149        0.12881
     126 -> 149        0.26122
     128 -> 149        0.37733
     129 -> 150       -0.11730
     130 -> 149        0.15848
     132 -> 150        0.20049
     133 -> 149       -0.30630
     143 -> 150        0.14792

 Excited State  43:      Singlet-A      6.6280 eV  187.06 nm  f=0.0001  <S**2>=0.000
     146 -> 152        0.47329
     147 -> 153        0.45375
     148 -> 152        0.10890

 Excited State  44:      Singlet-A      6.6538 eV  186.33 nm  f=0.0005  <S**2>=0.000
     127 -> 149        0.10601
     132 -> 149       -0.12306
     135 -> 149        0.48414
     136 -> 150       -0.18421
     137 -> 149       -0.23232
     147 -> 164        0.10536
     148 -> 165        0.21317

 Excited State  45:      Singlet-A      6.6545 eV  186.32 nm  f=0.0202  <S**2>=0.000
     134 -> 149       -0.10265
     135 -> 150       -0.16619
     136 -> 149        0.55942
     141 -> 150       -0.13995
     142 -> 149        0.11114
     147 -> 165        0.10760
     148 -> 164        0.15429
     148 -> 166       -0.11875

 Excited State  46:      Singlet-A      6.6747 eV  185.75 nm  f=0.0008  <S**2>=0.000
     135 -> 149        0.13639
     141 -> 149       -0.24494
     141 -> 151       -0.16993
     142 -> 150        0.31874
     147 -> 155        0.11682
     147 -> 159       -0.12740
     148 -> 168        0.33568
     148 -> 173       -0.14069

 Excited State  47:      Singlet-A      6.6812 eV  185.57 nm  f=0.0008  <S**2>=0.000
     141 -> 149        0.24496
     141 -> 151        0.17516
     142 -> 150       -0.33145
     147 -> 155        0.15152
     147 -> 159       -0.12124
     148 -> 154       -0.10100
     148 -> 168        0.33264
     148 -> 173       -0.13744

 Excited State  48:      Singlet-A      6.6953 eV  185.18 nm  f=0.0126  <S**2>=0.000
     141 -> 150        0.40753
     141 -> 152        0.10861
     142 -> 149       -0.27494
     142 -> 151       -0.22104
     144 -> 151        0.13805
     147 -> 165        0.11988
     148 -> 164        0.16085
     148 -> 166       -0.12915
     148 -> 167        0.15816

 Excited State  49:      Singlet-A      6.7069 eV  184.86 nm  f=0.0140  <S**2>=0.000
     134 -> 149        0.23707
     136 -> 149       -0.22132
     141 -> 150       -0.24572
     142 -> 149        0.16435
     142 -> 151        0.13049
     147 -> 158        0.12955
     147 -> 165        0.14939
     148 -> 163        0.15860
     148 -> 164        0.19636
     148 -> 166       -0.14041
     148 -> 167        0.26177
     148 -> 172        0.10446

 Excited State  50:      Singlet-A      6.7112 eV  184.74 nm  f=0.0015  <S**2>=0.000
     145 -> 154        0.11447
     146 -> 155        0.25220
     147 -> 154        0.50152
     148 -> 155       -0.34035

 Excited State  51:      Singlet-A      6.7173 eV  184.57 nm  f=0.0003  <S**2>=0.000
     122 -> 149        0.26951
     127 -> 149       -0.22226
     128 -> 150        0.11793
     129 -> 149        0.12309
     130 -> 150        0.11305
     132 -> 149        0.26895
     133 -> 150       -0.12699
     141 -> 151        0.10406
     142 -> 150       -0.15865
     146 -> 154       -0.10629
     147 -> 155       -0.23192
     148 -> 154        0.15713
     148 -> 165        0.10296

 Excited State  52:      Singlet-A      6.7225 eV  184.43 nm  f=0.0000  <S**2>=0.000
     122 -> 149        0.15001
     127 -> 149       -0.12363
     132 -> 149        0.14074
     146 -> 154        0.19279
     147 -> 155        0.42302
     148 -> 154       -0.28015
     148 -> 160        0.12385
     148 -> 168       -0.17166

 Excited State  53:      Singlet-A      6.7712 eV  183.11 nm  f=0.0005  <S**2>=0.000
     135 -> 149        0.35861
     147 -> 164       -0.13922
     147 -> 166        0.11337
     147 -> 167       -0.14560
     148 -> 165       -0.34312
     148 -> 170        0.33222
     148 -> 171       -0.13056

 Excited State  54:      Singlet-A      6.7954 eV  182.45 nm  f=0.0448  <S**2>=0.000
     131 -> 150       -0.10766
     134 -> 149        0.50692
     135 -> 150       -0.11727
     136 -> 149        0.20053
     144 -> 151       -0.15290
     145 -> 152       -0.10301
     147 -> 165       -0.10228
     148 -> 163        0.15289
     148 -> 164       -0.18571
     148 -> 166        0.14683

 Excited State  55:      Singlet-A      6.8273 eV  181.60 nm  f=0.0026  <S**2>=0.000
     134 -> 149        0.14096
     143 -> 150       -0.29233
     144 -> 151        0.35368
     145 -> 152        0.17256
     146 -> 153       -0.10975
     147 -> 158        0.11795
     148 -> 163       -0.10112
     148 -> 166        0.10831
     148 -> 167       -0.10151
     148 -> 169       -0.22780

 Excited State  56:      Singlet-A      6.8331 eV  181.45 nm  f=0.0030  <S**2>=0.000
     143 -> 150       -0.16346
     144 -> 151        0.19287
     147 -> 157       -0.11522
     147 -> 160       -0.15371
     147 -> 168        0.17896
     148 -> 159       -0.11176
     148 -> 169        0.43892
     148 -> 174       -0.12456
     148 -> 176       -0.15616
     148 -> 178        0.10264

 Excited State  57:      Singlet-A      6.8746 eV  180.35 nm  f=0.0012  <S**2>=0.000
     120 -> 149       -0.24430
     121 -> 149        0.18961
     125 -> 149       -0.14001
     126 -> 149        0.26960
     127 -> 150        0.13147
     129 -> 150       -0.15482
     130 -> 149       -0.26066
     130 -> 151        0.10724
     132 -> 150       -0.15996
     133 -> 149        0.21212

 Excited State  58:      Singlet-A      6.9059 eV  179.53 nm  f=0.0000  <S**2>=0.000
     131 -> 149        0.58606
     134 -> 150       -0.15568
     148 -> 165       -0.11231
     148 -> 170       -0.25156

 Excited State  59:      Singlet-A      6.9503 eV  178.39 nm  f=0.0001  <S**2>=0.000
     107 -> 149       -0.10105
     115 -> 149        0.14984
     117 -> 149       -0.14921
     119 -> 150        0.10402
     120 -> 149        0.40896
     121 -> 149        0.42191

 Excited State  60:      Singlet-A      6.9825 eV  177.56 nm  f=0.0121  <S**2>=0.000
     143 -> 150       -0.10192
     144 -> 151        0.30428
     146 -> 153        0.26911
     147 -> 157        0.36461
     147 -> 158       -0.25616
     148 -> 153       -0.10234
     148 -> 163        0.15151
     148 -> 167        0.12365

 Excited State  61:      Singlet-A      6.9966 eV  177.21 nm  f=0.0000  <S**2>=0.000
     118 -> 149       -0.30225
     122 -> 149        0.30858
     126 -> 150        0.13535
     129 -> 149       -0.18293
     129 -> 151        0.10592
     130 -> 150       -0.14987
     132 -> 149       -0.17639
     139 -> 149       -0.14318
     140 -> 150       -0.13180
     147 -> 156        0.21909

 Excited State  62:      Singlet-A      7.0073 eV  176.94 nm  f=0.0000  <S**2>=0.000
     118 -> 149        0.11710
     122 -> 149       -0.12384
     146 -> 157       -0.15263
     147 -> 156        0.51980
     147 -> 159       -0.10450
     148 -> 157        0.20222
     148 -> 158        0.11730

 Excited State  63:      Singlet-A      7.0598 eV  175.62 nm  f=0.0120  <S**2>=0.000
     146 -> 153       -0.12694
     146 -> 156       -0.19507
     147 -> 157        0.38363
     147 -> 158        0.36573
     148 -> 156        0.22010
     148 -> 159        0.12211
     148 -> 169        0.10170
     148 -> 176       -0.10587

 Excited State  64:      Singlet-A      7.0889 eV  174.90 nm  f=0.0133  <S**2>=0.000
     123 -> 149       -0.21637
     125 -> 149        0.57630
     126 -> 149        0.23564
     131 -> 150       -0.11139
     148 -> 167        0.13909

 Excited State  65:      Singlet-A      7.0901 eV  174.87 nm  f=0.0003  <S**2>=0.000
     118 -> 149       -0.16041
     137 -> 149        0.10052
     139 -> 149        0.18843
     139 -> 151        0.16018
     140 -> 150        0.49070
     143 -> 151        0.19804
     144 -> 152        0.11550

 Excited State  66:      Singlet-A      7.1289 eV  173.92 nm  f=0.0005  <S**2>=0.000
     120 -> 149        0.14060
     138 -> 149       -0.20248
     138 -> 151       -0.14788
     139 -> 150        0.47925
     139 -> 152        0.12158
     140 -> 149        0.21777
     140 -> 151        0.20279

 Excited State  67:      Singlet-A      7.1300 eV  173.89 nm  f=0.0000  <S**2>=0.000
     146 -> 168        0.10418
     147 -> 159        0.25100
     147 -> 169        0.22592
     148 -> 160       -0.19831
     148 -> 168        0.24099
     148 -> 173        0.38545
     148 -> 177        0.18729

 Excited State  68:      Singlet-A      7.1769 eV  172.76 nm  f=0.0004  <S**2>=0.000
     147 -> 160        0.29836
     147 -> 168        0.14110
     147 -> 171        0.13257
     147 -> 173        0.15197
     148 -> 161       -0.21314
     148 -> 164       -0.13623
     148 -> 169        0.12995
     148 -> 172        0.26942
     148 -> 174        0.29049
     148 -> 178       -0.14800

 Excited State  69:      Singlet-A      7.1859 eV  172.54 nm  f=0.0011  <S**2>=0.000
     116 -> 149       -0.17735
     119 -> 149        0.35725
     120 -> 150        0.10734
     121 -> 150        0.13078
     129 -> 149       -0.10081
     132 -> 149       -0.13461
     138 -> 150       -0.14243
     147 -> 172        0.13212
     148 -> 165       -0.10042
     148 -> 171        0.26900
     148 -> 175        0.10030

 Excited State  70:      Singlet-A      7.1911 eV  172.41 nm  f=0.0000  <S**2>=0.000
     116 -> 149        0.12986
     118 -> 149       -0.15385
     119 -> 149       -0.26643
     120 -> 150       -0.10540
     127 -> 149        0.11763
     132 -> 149        0.10523
     138 -> 150       -0.12301
     147 -> 172        0.17387
     148 -> 165       -0.11854
     148 -> 171        0.35664

 The electronic state is 1-A.
 Alpha  occ. eigenvalues --  -10.41155 -10.41155 -10.41007 -10.41007 -10.40605
 Alpha  occ. eigenvalues --  -10.40605 -10.40512 -10.40512 -10.39877 -10.39794
 Alpha  occ. eigenvalues --  -10.39645 -10.39645 -10.39560 -10.39560 -10.39539
 Alpha  occ. eigenvalues --  -10.39538 -10.39489 -10.39489 -10.39240 -10.39240
 Alpha  occ. eigenvalues --  -10.39229 -10.39229 -10.38897 -10.38897 -10.38360
 Alpha  occ. eigenvalues --  -10.38360 -10.38004 -10.38004 -10.37941 -10.37941
 Alpha  occ. eigenvalues --  -10.37782 -10.37782 -10.37593 -10.37593 -10.37502
 Alpha  occ. eigenvalues --  -10.37502 -10.36852 -10.36852 -10.36836 -10.36836
 Alpha  occ. eigenvalues --   -0.92378  -0.92375  -0.91389  -0.90820  -0.89780
 Alpha  occ. eigenvalues --   -0.89102  -0.86496  -0.85373  -0.85350  -0.84793
 Alpha  occ. eigenvalues --   -0.84005  -0.82433  -0.81240  -0.78842  -0.78455
 Alpha  occ. eigenvalues --   -0.76705  -0.74989  -0.74971  -0.74427  -0.74211
 Alpha  occ. eigenvalues --   -0.73986  -0.73981  -0.73103  -0.73039  -0.72776
 Alpha  occ. eigenvalues --   -0.69562  -0.67377  -0.65719  -0.64274  -0.62403
 Alpha  occ. eigenvalues --   -0.61310  -0.61310  -0.60187  -0.59579  -0.58422
 Alpha  occ. eigenvalues --   -0.58020  -0.57381  -0.56132  -0.54884  -0.54453
 Alpha  occ. eigenvalues --   -0.53006  -0.52081  -0.51806  -0.51436  -0.50974
 Alpha  occ. eigenvalues --   -0.50530  -0.49136  -0.48776  -0.48420  -0.48280
 Alpha  occ. eigenvalues --   -0.47368  -0.46974  -0.46343  -0.46078  -0.45956
 Alpha  occ. eigenvalues --   -0.45914  -0.45708  -0.45615  -0.45517  -0.45414
 Alpha  occ. eigenvalues --   -0.45327  -0.45296  -0.43977  -0.43923  -0.43759
 Alpha  occ. eigenvalues --   -0.43675  -0.43177  -0.42492  -0.42357  -0.42335
 Alpha  occ. eigenvalues --   -0.42126  -0.42124  -0.41318  -0.40947  -0.40629
 Alpha  occ. eigenvalues --   -0.40134  -0.40041  -0.39906  -0.39697  -0.39568
 Alpha  occ. eigenvalues --   -0.39104  -0.38497  -0.38163  -0.38153  -0.38036
 Alpha  occ. eigenvalues --   -0.38004  -0.37761  -0.37582  -0.37196  -0.36945
 Alpha  occ. eigenvalues --   -0.36924  -0.36789  -0.36762  -0.36315  -0.34922
 Alpha  occ. eigenvalues --   -0.34821  -0.34120  -0.33722  -0.33503  -0.33281
 Alpha  occ. eigenvalues --   -0.32048  -0.32023  -0.31358  -0.28807  -0.26788
 Alpha  occ. eigenvalues --   -0.24157  -0.21465  -0.18743
 Alpha virt. eigenvalues --   -0.07791  -0.04027  -0.00807   0.02529   0.05155
 Alpha virt. eigenvalues --    0.05938   0.05949   0.07074   0.07077   0.07436
 Alpha virt. eigenvalues --    0.07987   0.08110   0.08177   0.08415   0.08726

 Mulliken charges:
               1
     1  C   -0.250611
     2  C   -0.222500
     3  C   -0.214570
     4  C    0.018573
     5  C   -0.105832
     6  C    0.157866
     7  C   -0.180499
     8  C   -0.242906
     9  C    0.052996
    10  C   -0.236031
    11  C   -0.123130
    12  C   -0.272071
    13  C    0.085785
    14  C   -0.204780
    15  C   -0.171189
    16  C   -0.171190
    17  C   -0.204780
    18  C    0.085785
    19  C   -0.272070
    20  C   -0.123131
    21  C   -0.236030
    22  C    0.052994
    23  C   -0.242905
    24  C   -0.180500
    25  C   -0.105832
    26  C    0.157866
    27  C   -0.453238
    28  C   -0.471500
    29  C   -0.471883
    30  C   -0.250611
    31  C   -0.222500
    32  C   -0.214570
    33  C    0.018572
    34  C   -0.453236
    35  C   -0.471500
    36  C   -0.471884
    37  C   -0.435702
    38  C   -0.432358
    39  C   -0.432358
    40  C   -0.435702
    41  H    0.118441
    42  H    0.133861
    43  H    0.130979
    44  H    0.117007
    45  H    0.133738
    46  H    0.146733
    47  H    0.161169
    48  H    0.158102
    49  H    0.148341
    50  H    0.166679
    51  H    0.152067
    52  H    0.153163
    53  H    0.150179
    54  H    0.150179
    55  H    0.153162
    56  H    0.152067
    57  H    0.166680
    58  H    0.148341
    59  H    0.158102
    60  H    0.161170
    61  H    0.143786
    62  H    0.144198
    63  H    0.142246
    64  H    0.143939
    65  H    0.142359
    66  H    0.142949
    67  H    0.163754
    68  H    0.159791
    69  H    0.163215
    70  H    0.133861
    71  H    0.118441
    72  H    0.130979
    73  H    0.117007
    74  H    0.133738
    75  H    0.146733
    76  H    0.144198
    77  H    0.142245
    78  H    0.143786
    79  H    0.143939
    80  H    0.142359
    81  H    0.142949
    82  H    0.163754
    83  H    0.159791
    84  H    0.163215
    85  H    0.157322
    86  H    0.163388
    87  H    0.157630
    88  H    0.157551
    89  H    0.163508
    90  H    0.157485
    91  H    0.157485
    92  H    0.157551
    93  H    0.163508
    94  H    0.163388
    95  H    0.157630
    96  H    0.157322
 Sum of Mulliken charges =  -0.00000

 Dipole moment (field-independent basis, Debye):
    X=              0.0000    Y=             -0.0000    Z=             -0.5380  Tot=              0.5380
 Quadrupole moment (field-independent basis, Debye-Ang):
   XX=           -145.8423   YY=           -223.0350   ZZ=           -261.6138
   XY=            -16.2858   XZ=             -0.0002   YZ=              0.0000

 Normal termination of Gaussian 16 at Mon Nov  6 21:07:57 2023.
