 Gaussian 16, Revision C.02,
 Gaussian 16:  ES64L-G16RevC.02  7-Dec-2021

 ----------------------------------------------------------------------
 # td=(nstates=150) PBEPBE/def2TZVP IOp(3/76=1000003750) IOp(3/77=06250
 06250) IOp(3/78=1000010000) scrf(smd, solvent=ethanol)
 ----------------------------------------------------------------------

 ---
 A-1
 ---
 Symbolic Z-matrix:
 Charge =  1 Multiplicity = 1

                         Standard orientation:
 ---------------------------------------------------------------------
 Center     Atomic      Atomic             Coordinates (Angstroms)
 Number     Number       Type             X           Y           Z
 ---------------------------------------------------------------------
      1          6           0       -1.259214    0.216698   -0.039367
      2          6           0        0.000003    0.828935   -0.000122
      3          6           0        1.259209    0.216684    0.039249
      4          7           0        2.433464    0.904848    0.145998
      5         16           0       -1.557561   -1.512152    0.053882
      6          6           0       -3.297665   -1.258824   -0.027283
      7          6           0       -3.589904    0.108866   -0.118299
      8          7           0       -2.433474    0.904863   -0.146106
      9         16           0        1.557549   -1.512171   -0.053923
     10          6           0        3.297657   -1.258850    0.027304
     11          6           0        3.589900    0.108842    0.118251
     12          6           0       -4.301571   -2.224422   -0.003624
     13          6           0       -5.624645   -1.792125   -0.066975
     14          6           0       -5.925643   -0.425687   -0.149009
     15          6           0       -4.920394    0.538274   -0.174272
     16          6           0        4.301563   -2.224450    0.003718
     17          6           0        5.624635   -1.792149    0.067066
     18          6           0        5.925635   -0.425707    0.149021
     19          6           0        4.920384    0.538258    0.174213
     20          6           0       -2.510348    2.373529   -0.257226
     21          6           0       -2.566433    3.073786    1.101522
     22          6           0        2.510339    2.373497    0.257299
     23          6           0        2.566508    3.073929   -1.101357
     24          1           0        0.000014    1.909040   -0.000214
     25          1           0       -4.060576   -3.280313    0.063971
     26          1           0       -6.427238   -2.522132   -0.049094
     27          1           0       -6.962056   -0.106514   -0.191342
     28          1           0       -5.176748    1.590213   -0.228130
     29          1           0        4.060566   -3.280345   -0.063815
     30          1           0        6.427230   -2.522156    0.049231
     31          1           0        6.962048   -0.106532    0.191339
     32          1           0        5.176733    1.590201    0.228019
     33          1           0       -1.657488    2.708489   -0.852128
     34          1           0       -3.398115    2.597174   -0.852215
     35          1           0       -3.441185    2.752064    1.674572
     36          1           0       -1.673838    2.863356    1.699082
     37          1           0       -2.634230    4.156364    0.954302
     38          1           0        1.657436    2.708379    0.852183
     39          1           0        3.398074    2.597059    0.852370
     40          1           0        3.441334    2.752344   -1.674368
     41          1           0        1.673988    2.863510   -1.699033
     42          1           0        2.634214    4.156493   -0.953990
 ---------------------------------------------------------------------

 SCF Done:  E(RPBE+HF-PBE) =  -1640.38197510     A.U. after   12 cycles

 Excitation energies and oscillator strengths:

 Excited State   1:      Singlet-A      3.3304 eV  372.28 nm  f=1.2548  <S**2>=0.000
      89 -> 90         0.70159
 This state for optimization and/or second-order correction.
 Total Energy, E(TD-HF/TD-DFT) =  -1640.25958634
 Copying the excited state density for this state as the 1-particle RhoCI density.

 Excited State   2:      Singlet-A      4.2420 eV  292.28 nm  f=0.0009  <S**2>=0.000
      87 -> 91        -0.10885
      89 -> 91         0.68507

 Excited State   3:      Singlet-A      4.5129 eV  274.74 nm  f=0.0254  <S**2>=0.000
      86 -> 93         0.10184
      88 -> 90         0.58391
      89 -> 92        -0.34342

 Excited State   4:      Singlet-A      4.6758 eV  265.16 nm  f=0.0070  <S**2>=0.000
      86 -> 92         0.12438
      87 -> 90         0.60543
      89 -> 93        -0.30807

 Excited State   5:      Singlet-A      4.8726 eV  254.45 nm  f=0.0400  <S**2>=0.000
      86 -> 90        -0.23299
      88 -> 90         0.34935
      88 -> 95        -0.11675
      89 -> 92         0.50308
      89 -> 94         0.13171

 Excited State   6:      Singlet-A      4.9646 eV  249.74 nm  f=0.0445  <S**2>=0.000
      86 -> 90         0.63083
      89 -> 92         0.27610

 Excited State   7:      Singlet-A      4.9933 eV  248.30 nm  f=0.0586  <S**2>=0.000
      86 -> 92        -0.12783
      87 -> 90         0.32465
      87 -> 95        -0.11578
      89 -> 93         0.55697
      89 -> 95         0.12170

 Excited State   8:      Singlet-A      5.2614 eV  235.65 nm  f=0.0882  <S**2>=0.000
      86 -> 90         0.11561
      86 -> 95        -0.10523
      87 -> 92         0.12849
      88 -> 90        -0.13893
      88 -> 93         0.11536
      89 -> 94         0.63260

 Excited State   9:      Singlet-A      5.3242 eV  232.87 nm  f=0.0008  <S**2>=0.000
      84 -> 91        -0.12949
      86 -> 91         0.22705
      87 -> 96         0.15317
      88 -> 91         0.52155
      89 -> 96        -0.33177

 Excited State  10:      Singlet-A      5.4435 eV  227.77 nm  f=0.0686  <S**2>=0.000
      86 -> 94        -0.12268
      87 -> 90        -0.11620
      87 -> 93         0.17160
      88 -> 92         0.20629
      89 -> 93        -0.15839
      89 -> 95         0.59582

 Excited State  11:      Singlet-A      5.6990 eV  217.56 nm  f=0.0190  <S**2>=0.000
      83 -> 91         0.12721
      87 -> 91         0.63744
      88 -> 96         0.19716
      89 -> 91         0.12310

 Excited State  12:      Singlet-A      5.7139 eV  216.99 nm  f=0.0004  <S**2>=0.000
      86 -> 91        -0.23671
      88 -> 91         0.39622
      89 -> 96         0.51969

 Excited State  13:      Singlet-A      5.7930 eV  214.02 nm  f=0.4116  <S**2>=0.000
      85 -> 90         0.44786
      86 -> 92         0.10491
      87 -> 93        -0.21005
      87 -> 95         0.14057
      88 -> 92        -0.28222
      88 -> 94         0.18307
      89 -> 93         0.15705
      89 -> 95         0.26842

 Excited State  14:      Singlet-A      6.0552 eV  204.76 nm  f=0.3042  <S**2>=0.000
      86 -> 90         0.11562
      86 -> 93        -0.18173
      87 -> 92         0.41338
      87 -> 94        -0.12890
      88 -> 93         0.35815
      88 -> 95        -0.13567
      89 -> 92        -0.13580
      89 -> 94        -0.24368

 Excited State  15:      Singlet-A      6.1051 eV  203.08 nm  f=0.1572  <S**2>=0.000
      85 -> 90         0.29141
      86 -> 92         0.19234
      87 -> 93         0.25269
      87 -> 95         0.16281
      88 -> 92         0.44096
      88 -> 94         0.19131
      89 -> 95        -0.15879

 Excited State  16:      Singlet-A      6.1062 eV  203.05 nm  f=0.0013  <S**2>=0.000
      86 -> 91         0.59605
      89 -> 96         0.31055

 Excited State  17:      Singlet-A      6.1738 eV  200.82 nm  f=0.0334  <S**2>=0.000
      85 -> 92         0.15537
      86 -> 93         0.30227
      87 -> 92         0.17890
      87 -> 94         0.34494
      88 -> 93         0.27382
      88 -> 95         0.32274
      89 -> 92         0.12384
      89 -> 97        -0.11356

 Excited State  18:      Singlet-A      6.1870 eV  200.40 nm  f=0.0559  <S**2>=0.000
      85 -> 90         0.42752
      85 -> 93        -0.14935
      86 -> 92        -0.33022
      87 -> 95        -0.20093
      88 -> 94        -0.28785
      89 -> 93        -0.15808

 Excited State  19:      Singlet-A      6.3292 eV  195.89 nm  f=0.0002  <S**2>=0.000
      89 -> 97         0.67709

 Excited State  20:      Singlet-A      6.4363 eV  192.63 nm  f=0.0222  <S**2>=0.000
      84 -> 90         0.67486

 Excited State  21:      Singlet-A      6.4600 eV  191.93 nm  f=0.0045  <S**2>=0.000
      83 -> 90        -0.20014
      89 -> 98         0.60487
      89 -> 99        -0.23378

 Excited State  22:      Singlet-A      6.5485 eV  189.33 nm  f=0.0154  <S**2>=0.000
      83 -> 90         0.65323
      89 -> 98         0.18337

 Excited State  23:      Singlet-A      6.6311 eV  186.97 nm  f=0.9156  <S**2>=0.000
      86 -> 92         0.47028
      87 -> 93        -0.18698
      87 -> 95        -0.21376
      88 -> 92         0.10988
      88 -> 94        -0.39370

 Excited State  24:      Singlet-A      6.7943 eV  182.48 nm  f=0.0060  <S**2>=0.000
      85 -> 91        -0.11207
      89 -> 98         0.23017
      89 -> 99         0.57930
      89 ->101        -0.24912

 Excited State  25:      Singlet-A      6.7961 eV  182.43 nm  f=0.0041  <S**2>=0.000
      86 -> 93         0.11505
      87 -> 92        -0.45265
      87 -> 94        -0.12292
      88 -> 93         0.48291
      88 -> 95        -0.13749

 Excited State  26:      Singlet-A      6.8207 eV  181.78 nm  f=0.0185  <S**2>=0.000
      85 -> 92         0.11583
      86 -> 93         0.51272
      87 -> 92         0.19450
      87 -> 94        -0.26343
      88 -> 93        -0.10848
      88 -> 95        -0.26990

 Excited State  27:      Singlet-A      6.8228 eV  181.72 nm  f=0.0416  <S**2>=0.000
      86 -> 92         0.19267
      86 -> 94        -0.23773
      87 -> 93         0.46694
      88 -> 92        -0.38794
      88 -> 94        -0.10412

 Excited State  28:      Singlet-A      6.9490 eV  178.42 nm  f=0.0007  <S**2>=0.000
      82 -> 90         0.62013
      85 -> 91        -0.23179
      86 -> 96        -0.11512

 Excited State  29:      Singlet-A      6.9733 eV  177.80 nm  f=0.0124  <S**2>=0.000
      82 -> 90         0.24275
      85 -> 91         0.51536
      86 -> 94         0.13620
      86 -> 96         0.28753
      89 ->101        -0.14643

 Excited State  30:      Singlet-A      6.9837 eV  177.53 nm  f=0.1085  <S**2>=0.000
      85 -> 91        -0.12710
      85 -> 95         0.13678
      86 -> 94         0.56984
      87 -> 93         0.29480

 Excited State  31:      Singlet-A      7.0881 eV  174.92 nm  f=0.1411  <S**2>=0.000
      83 -> 92         0.10376
      85 -> 94         0.18122
      86 -> 95         0.54180
      87 -> 94        -0.20367
      88 -> 95         0.25373

 Excited State  32:      Singlet-A      7.1316 eV  173.85 nm  f=0.0020  <S**2>=0.000
      83 -> 91         0.23669
      84 -> 96        -0.17398
      86 -> 96         0.13637
      87 -> 91        -0.22630
      87 -> 95         0.11677
      88 -> 96         0.51192
      89 ->101         0.10212

 Excited State  33:      Singlet-A      7.2264 eV  171.57 nm  f=0.0293  <S**2>=0.000
      83 -> 91        -0.10017
      87 -> 95         0.52289
      88 -> 94        -0.35903
      88 -> 96        -0.12376
      88 -> 97        -0.17820
      89 ->101         0.10183

 Excited State  34:      Singlet-A      7.2345 eV  171.38 nm  f=0.1151  <S**2>=0.000
      84 -> 91         0.23293
      86 -> 95         0.27399
      87 -> 94         0.39015
      87 -> 96        -0.11595
      88 -> 95        -0.35654

 Excited State  35:      Singlet-A      7.2475 eV  171.07 nm  f=0.0151  <S**2>=0.000
      83 -> 96        -0.17541
      84 -> 91         0.53550
      87 -> 94        -0.20014
      87 -> 96        -0.13616
      88 -> 91         0.17127
      88 -> 95         0.19211

 Excited State  36:      Singlet-A      7.2568 eV  170.85 nm  f=0.0002  <S**2>=0.000
      86 -> 99         0.11769
      89 ->100         0.61832
      89 ->103         0.13561
      89 ->105        -0.17514

 Excited State  37:      Singlet-A      7.2861 eV  170.17 nm  f=0.0024  <S**2>=0.000
      87 -> 95        -0.12381
      89 -> 98         0.12407
      89 -> 99         0.21033
      89 ->101         0.56868
      89 ->104         0.21559

 Excited State  38:      Singlet-A      7.3466 eV  168.76 nm  f=0.0011  <S**2>=0.000
      69 -> 90        -0.13848
      71 -> 90         0.17235
      76 -> 90         0.50031
      78 -> 90         0.11156
      81 -> 90        -0.30318
      87 -> 96         0.21328

 Excited State  39:      Singlet-A      7.4223 eV  167.04 nm  f=0.0010  <S**2>=0.000
      78 -> 90        -0.11870
      79 -> 90         0.14886
      81 -> 90         0.44154
      84 -> 91         0.17796
      87 -> 96         0.43519

 Excited State  40:      Singlet-A      7.4679 eV  166.02 nm  f=0.0005  <S**2>=0.000
      71 -> 90        -0.10265
      76 -> 90        -0.31389
      79 -> 90        -0.24638
      81 -> 90        -0.33667
      84 -> 91         0.15348
      87 -> 96         0.38383

 Excited State  41:      Singlet-A      7.4948 eV  165.43 nm  f=0.0035  <S**2>=0.000
      80 -> 90         0.16459
      83 -> 91         0.51910
      84 -> 96        -0.11548
      86 -> 96         0.15813
      88 -> 96        -0.35415

 Excited State  42:      Singlet-A      7.5225 eV  164.82 nm  f=0.0092  <S**2>=0.000
      80 -> 90         0.66830
      83 -> 91        -0.13196

 Excited State  43:      Singlet-A      7.5565 eV  164.08 nm  f=0.0017  <S**2>=0.000
      78 -> 90         0.54859
      79 -> 90        -0.20927
      81 -> 90         0.25783
      82 -> 92         0.10839
      82 -> 94         0.13458

 Excited State  44:      Singlet-A      7.6445 eV  162.19 nm  f=0.0001  <S**2>=0.000
      78 -> 90        -0.11861
      86 ->101        -0.12677
      89 ->100        -0.11741
      89 ->102         0.47382
      89 ->103         0.39858
      89 ->108         0.12350

 Excited State  45:      Singlet-A      7.6797 eV  161.44 nm  f=0.0082  <S**2>=0.000
      76 -> 90        -0.13596
      78 -> 90         0.17269
      79 -> 90         0.35157
      85 -> 92         0.47291
      86 -> 93        -0.18781
      89 ->102         0.14222

 Excited State  46:      Singlet-A      7.6809 eV  161.42 nm  f=0.0023  <S**2>=0.000
      76 -> 90         0.13630
      78 -> 90        -0.17851
      79 -> 90        -0.36255
      83 -> 92        -0.17278
      84 -> 93         0.19783
      85 -> 92         0.40892
      86 -> 93        -0.10279
      86 -> 95         0.12364
      89 ->102        -0.10276

 Excited State  47:      Singlet-A      7.6882 eV  161.27 nm  f=0.0596  <S**2>=0.000
      83 -> 91        -0.11763
      83 -> 93         0.14914
      84 -> 92        -0.19250
      85 -> 91        -0.30921
      86 -> 96         0.48473
      89 -> 99        -0.10260
      89 ->104         0.11154

 Excited State  48:      Singlet-A      7.7194 eV  160.61 nm  f=0.1138  <S**2>=0.000
      82 -> 91         0.20871
      83 -> 91         0.10548
      83 -> 93         0.22388
      84 -> 92        -0.34194
      85 -> 91         0.12176
      85 -> 93        -0.17968
      86 -> 96        -0.22907
      87 -> 95         0.11983
      88 -> 97         0.34910

 Excited State  49:      Singlet-A      7.7630 eV  159.71 nm  f=0.0048  <S**2>=0.000
      77 -> 90         0.38996
      78 -> 92        -0.10214
      82 -> 93        -0.10845
      83 -> 93        -0.10514
      84 -> 92         0.18044
      87 -> 95         0.10240
      88 -> 97         0.41675

 Excited State  50:      Singlet-A      7.7747 eV  159.47 nm  f=0.0320  <S**2>=0.000
      77 -> 90         0.33910
      84 -> 92        -0.13839
      85 -> 93        -0.25082
      88 -> 97        -0.31262
      89 ->104        -0.30495
      89 ->106        -0.11845

 Excited State  51:      Singlet-A      7.7796 eV  159.37 nm  f=0.0202  <S**2>=0.000
      83 -> 92         0.12080
      86 -> 98        -0.10806
      86 -> 99         0.10901
      89 ->100        -0.17320
      89 ->102        -0.31635
      89 ->103         0.36298
      89 ->105        -0.32073
      89 ->112        -0.13376

 Excited State  52:      Singlet-A      7.7943 eV  159.07 nm  f=0.0007  <S**2>=0.000
      77 -> 90         0.31085
      84 -> 92        -0.11467
      85 -> 93         0.13266
      86 -> 96        -0.16313
      86 -> 97        -0.11349
      88 -> 97        -0.14207
      89 ->101        -0.13554
      89 ->104         0.42875
      89 ->106         0.14072

 Excited State  53:      Singlet-A      7.8112 eV  158.73 nm  f=0.0243  <S**2>=0.000
      83 -> 93         0.14489
      84 -> 92        -0.18008
      84 -> 94         0.12520
      85 -> 93         0.50904
      86 -> 92        -0.16134
      89 ->104        -0.24974

 Excited State  54:      Singlet-A      7.8612 eV  157.72 nm  f=0.2480  <S**2>=0.000
      79 -> 90        -0.23838
      83 -> 92         0.38502
      84 -> 93        -0.36663
      85 -> 92         0.13716
      86 -> 95        -0.14594
      87 -> 97         0.20898
      89 ->105         0.11364

 Excited State  55:      Singlet-A      7.9006 eV  156.93 nm  f=0.0001  <S**2>=0.000
      82 -> 92         0.14963
      87 -> 97        -0.18169
      89 ->102        -0.21040
      89 ->103         0.33549
      89 ->105         0.42486
      89 ->112         0.10870

 Excited State  56:      Singlet-A      7.9277 eV  156.39 nm  f=0.0875  <S**2>=0.000
      83 -> 92        -0.11131
      83 -> 94         0.11217
      84 -> 95        -0.10434
      85 -> 94        -0.11903
      87 -> 97         0.58260
      88 -> 95         0.10901
      89 ->102        -0.10015
      89 ->103         0.16635

 Excited State  57:      Singlet-A      7.9585 eV  155.79 nm  f=0.0004  <S**2>=0.000
      75 -> 90         0.38031
      77 -> 92         0.12859
      78 -> 93        -0.24042
      82 -> 92        -0.32477
      82 -> 94         0.10033
      88 -> 98        -0.20962
      89 ->105         0.14893

 Excited State  58:      Singlet-A      7.9976 eV  155.03 nm  f=0.0010  <S**2>=0.000
      75 -> 90         0.46143
      75 -> 93         0.10838
      78 -> 90        -0.12175
      78 -> 93         0.11152
      82 -> 92         0.21248
      88 -> 98         0.32303

 Excited State  59:      Singlet-A      8.0049 eV  154.89 nm  f=0.0550  <S**2>=0.000
      78 -> 92         0.14301
      82 -> 91         0.22792
      82 -> 93         0.13532
      83 -> 95        -0.10078
      84 -> 94         0.13241
      85 -> 95        -0.13976
      86 -> 97         0.51824
      89 ->106        -0.11299

 Excited State  60:      Singlet-A      8.0215 eV  154.57 nm  f=0.0050  <S**2>=0.000
      77 -> 90         0.21136
      78 -> 92         0.33995
      79 -> 92        -0.13552
      82 -> 93         0.40302
      86 -> 97        -0.25193

 Excited State  61:      Singlet-A      8.0239 eV  154.52 nm  f=0.0001  <S**2>=0.000
      75 -> 90        -0.15925
      78 -> 93        -0.18291
      82 -> 92        -0.27884
      87 ->100        -0.12047
      88 -> 98         0.48422
      89 ->105         0.12079

 Excited State  62:      Singlet-A      8.0690 eV  153.66 nm  f=0.0494  <S**2>=0.000
      86 ->102        -0.12906
      87 -> 98        -0.33005
      88 ->100         0.22872
      89 ->104        -0.12291
      89 ->106         0.46332

 Excited State  63:      Singlet-A      8.1081 eV  152.91 nm  f=0.2182  <S**2>=0.000
      74 -> 90         0.35585
      82 -> 91         0.30204
      82 -> 93        -0.12475
      83 -> 93        -0.11000
      83 -> 95        -0.19129
      84 -> 92         0.14828
      84 -> 94         0.26636
      86 -> 97        -0.18983

 Excited State  64:      Singlet-A      8.1125 eV  152.83 nm  f=0.2264  <S**2>=0.000
      83 -> 92        -0.13002
      83 -> 94        -0.10184
      84 -> 93         0.14544
      84 -> 95         0.13024
      85 -> 94         0.59667
      86 -> 95        -0.14930
      87 -> 97         0.12377

 Excited State  65:      Singlet-A      8.1215 eV  152.66 nm  f=0.0524  <S**2>=0.000
      72 -> 90        -0.12808
      73 -> 90        -0.14634
      74 -> 90         0.40923
      75 -> 92        -0.13535
      75 -> 94        -0.11832
      77 -> 93        -0.10130
      82 -> 91        -0.14100
      83 -> 95         0.17738
      84 -> 92        -0.11845
      84 -> 94        -0.24184
      85 -> 95        -0.12999
      86 -> 97         0.10142
      89 ->106         0.14349

 Excited State  66:      Singlet-A      8.1506 eV  152.12 nm  f=0.0021  <S**2>=0.000
      87 -> 98         0.43702
      88 ->100        -0.24060
      89 ->104        -0.11072
      89 ->106         0.38896

 Excited State  67:      Singlet-A      8.1867 eV  151.45 nm  f=0.0005  <S**2>=0.000
      87 ->100        -0.30733
      88 -> 99         0.53476
      89 ->105         0.15520

 Excited State  68:      Singlet-A      8.2202 eV  150.83 nm  f=0.0216  <S**2>=0.000
      72 -> 90         0.12518
      73 -> 90         0.38286
      74 -> 90         0.16897
      82 -> 91         0.11215
      84 -> 94        -0.13060
      85 -> 93         0.12384
      85 -> 95        -0.30517
      87 -> 98         0.12315
      87 -> 99        -0.19110
      88 ->100         0.11675

 Excited State  69:      Singlet-A      8.2531 eV  150.23 nm  f=0.0041  <S**2>=0.000
      73 -> 90         0.19423
      85 -> 95        -0.16475
      87 -> 98        -0.24253
      87 -> 99         0.41737
      88 ->100        -0.28361
      88 ->102         0.16970

 Excited State  70:      Singlet-A      8.2847 eV  149.66 nm  f=0.0158  <S**2>=0.000
      83 -> 94        -0.18031
      84 -> 95         0.17919
      85 -> 96         0.22351
      86 -> 98         0.44943
      86 -> 99        -0.24065
      86 ->104        -0.10044
      89 ->102        -0.11923
      89 ->105        -0.15052

 Excited State  71:      Singlet-A      8.3143 eV  149.12 nm  f=0.1210  <S**2>=0.000
      83 -> 94         0.41486
      84 -> 95        -0.38039
      85 -> 92         0.10572
      85 -> 94         0.20614
      86 -> 98         0.17963

 Excited State  72:      Singlet-A      8.3372 eV  148.71 nm  f=0.0207  <S**2>=0.000
      72 -> 90         0.12735
      73 -> 90         0.18277
      74 -> 90         0.18624
      85 -> 95         0.35424
      86 -> 97         0.13356
      89 ->107         0.42869

 Excited State  73:      Singlet-A      8.3669 eV  148.18 nm  f=0.0104  <S**2>=0.000
      72 -> 90        -0.19638
      74 -> 90        -0.17615
      78 -> 94        -0.15477
      82 -> 95        -0.15622
      85 -> 95        -0.27057
      86 -> 97        -0.13461
      89 ->107         0.44237
      89 ->111         0.11245

 Excited State  74:      Singlet-A      8.3852 eV  147.86 nm  f=0.0007  <S**2>=0.000
      86 -> 98        -0.10981
      87 ->100        -0.15068
      87 ->102         0.16986
      87 ->103         0.14404
      87 ->105        -0.19848
      88 ->101         0.55386

 Excited State  75:      Singlet-A      8.4223 eV  147.21 nm  f=0.0006  <S**2>=0.000
      72 -> 90        -0.21743
      73 -> 90         0.33092
      77 -> 95         0.12004
      78 -> 94        -0.25979
      79 -> 94         0.11767
      82 -> 95        -0.27150
      84 -> 94        -0.10559
      85 -> 95         0.22185
      89 ->107        -0.16926

 Excited State  76:      Singlet-A      8.4538 eV  146.66 nm  f=0.0040  <S**2>=0.000
      87 -> 99        -0.16986
      87 ->101         0.49791
      88 ->100        -0.11145
      88 ->102         0.19639
      88 ->103         0.19149
      88 ->105        -0.26133

 Excited State  77:      Singlet-A      8.4574 eV  146.60 nm  f=0.0010  <S**2>=0.000
      85 -> 96        -0.16281
      85 ->100        -0.12184
      86 -> 99         0.32134
      86 ->104        -0.10465
      89 ->102        -0.10338
      89 ->108         0.33830
      89 ->112         0.34897

 Excited State  78:      Singlet-A      8.4804 eV  146.20 nm  f=0.0001  <S**2>=0.000
      68 -> 90        -0.14320
      73 -> 92         0.13280
      74 -> 92        -0.18668
      75 -> 90        -0.15248
      75 -> 93         0.30998
      77 -> 92         0.27008
      77 -> 94        -0.11146
      78 -> 95         0.22689

 The electronic state is 1-A.
 Alpha  occ. eigenvalues --  -89.57558 -89.57558 -14.67842 -14.67842 -10.52544
 Alpha  occ. eigenvalues --  -10.52544 -10.47182 -10.47182 -10.45964 -10.45964
 Alpha  occ. eigenvalues --  -10.44688 -10.44688 -10.42541 -10.42353 -10.42353
 Alpha  occ. eigenvalues --  -10.41982 -10.41982 -10.41495 -10.41494 -10.41201
 Alpha  occ. eigenvalues --  -10.41201 -10.38935 -10.38935  -8.23007  -8.23007
 Alpha  occ. eigenvalues --   -6.12357  -6.12357  -6.12040  -6.12040  -6.11716
 Alpha  occ. eigenvalues --   -6.11716  -1.10938  -1.10564  -0.96032  -0.95874
 Alpha  occ. eigenvalues --   -0.93512  -0.91211  -0.88158  -0.85127  -0.84694
 Alpha  occ. eigenvalues --   -0.83580  -0.82185  -0.81379  -0.78843  -0.72558
 Alpha  occ. eigenvalues --   -0.72330  -0.72131  -0.69405  -0.67454  -0.67445
 Alpha  occ. eigenvalues --   -0.65074  -0.62438  -0.58857  -0.58263  -0.58090
 Alpha  occ. eigenvalues --   -0.56114  -0.55179  -0.53236  -0.53004  -0.52357
 Alpha  occ. eigenvalues --   -0.51145  -0.50945  -0.50751  -0.50620  -0.48427
 Alpha  occ. eigenvalues --   -0.48111  -0.47980  -0.46641  -0.45147  -0.44975
 Alpha  occ. eigenvalues --   -0.44113  -0.43719  -0.42861  -0.42370  -0.41858
 Alpha  occ. eigenvalues --   -0.41352  -0.41160  -0.40361  -0.40132  -0.39810
 Alpha  occ. eigenvalues --   -0.39425  -0.38727  -0.36456  -0.35861  -0.33837
 Alpha  occ. eigenvalues --   -0.29683  -0.29111  -0.28581  -0.23953
 Alpha virt. eigenvalues --   -0.07013  -0.01895  -0.01626  -0.00974  -0.00062
 Alpha virt. eigenvalues --    0.00772   0.03366   0.04618   0.05248   0.07268
 Alpha virt. eigenvalues --    0.07464   0.08128   0.09152   0.09357   0.09478

 Mulliken charges:
               1
     1  C    0.165022
     2  C   -0.432983
     3  C    0.165001
     4  N    0.098618
     5  S    0.036855
     6  C    0.013350
     7  C    0.186639
     8  N    0.098611
     9  S    0.036857
    10  C    0.013353
    11  C    0.186631
    12  C   -0.206868
    13  C   -0.174474
    14  C   -0.123723
    15  C   -0.325821
    16  C   -0.206864
    17  C   -0.174472
    18  C   -0.123727
    19  C   -0.325819
    20  C   -0.175623
    21  C   -0.439819
    22  C   -0.175623
    23  C   -0.439828
    24  H    0.219015
    25  H    0.184592
    26  H    0.175619
    27  H    0.176575
    28  H    0.185948
    29  H    0.184592
    30  H    0.175619
    31  H    0.176576
    32  H    0.185953
    33  H    0.173093
    34  H    0.178292
    35  H    0.158689
    36  H    0.159345
    37  H    0.160691
    38  H    0.173092
    39  H    0.178294
    40  H    0.158688
    41  H    0.159347
    42  H    0.160689
 Sum of Mulliken charges =   1.00000

 Dipole moment (field-independent basis, Debye):
    X=              0.0001    Y=              5.3212    Z=              0.0001  Tot=              5.3212
 Quadrupole moment (field-independent basis, Debye-Ang):
   XX=            -66.1642   YY=           -107.0301   ZZ=           -153.6236
   XY=             -0.0003   XZ=              2.2592   YZ=             -0.0006

 Normal termination of Gaussian 16 at Sun Nov  5 14:21:37 2023.
